TITLE = "  1.05500E+03 [h]"
VARIABLES="X [m]","Y [m]","Z [m]","qlx [m/h]","qly [m/h]","qlz [m/h]","qgx [m/h]","qgy [m/h]","qgz [m/h]","Material_ID"
ZONE T="1.05500E+03", STRANDID=1, SOLUTIONTIME=1.05500E+03, I=2, J=2, K=101, VARLOCATION=([4-10]=CELLCENTERED), DATAPACKING=BLOCK
 0.000000E+00  1.350000E-01  0.000000E+00  1.350000E-01  0.000000E+00  1.350000E-01  0.000000E+00  1.350000E-01  0.000000E+00  1.350000E-01 
 0.000000E+00  1.350000E-01  0.000000E+00  1.350000E-01  0.000000E+00  1.350000E-01  0.000000E+00  1.350000E-01  0.000000E+00  1.350000E-01 
 0.000000E+00  1.350000E-01  0.000000E+00  1.350000E-01  0.000000E+00  1.350000E-01  0.000000E+00  1.350000E-01  0.000000E+00  1.350000E-01 
 0.000000E+00  1.350000E-01  0.000000E+00  1.350000E-01  0.000000E+00  1.350000E-01  0.000000E+00  1.350000E-01  0.000000E+00  1.350000E-01 
 0.000000E+00  1.350000E-01  0.000000E+00  1.350000E-01  0.000000E+00  1.350000E-01  0.000000E+00  1.350000E-01  0.000000E+00  1.350000E-01 
 0.000000E+00  1.350000E-01  0.000000E+00  1.350000E-01  0.000000E+00  1.350000E-01  0.000000E+00  1.350000E-01  0.000000E+00  1.350000E-01 
 0.000000E+00  1.350000E-01  0.000000E+00  1.350000E-01  0.000000E+00  1.350000E-01  0.000000E+00  1.350000E-01  0.000000E+00  1.350000E-01 
 0.000000E+00  1.350000E-01  0.000000E+00  1.350000E-01  0.000000E+00  1.350000E-01  0.000000E+00  1.350000E-01  0.000000E+00  1.350000E-01 
 0.000000E+00  1.350000E-01  0.000000E+00  1.350000E-01  0.000000E+00  1.350000E-01  0.000000E+00  1.350000E-01  0.000000E+00  1.350000E-01 
 0.000000E+00  1.350000E-01  0.000000E+00  1.350000E-01  0.000000E+00  1.350000E-01  0.000000E+00  1.350000E-01  0.000000E+00  1.350000E-01 
 0.000000E+00  1.350000E-01  0.000000E+00  1.350000E-01  0.000000E+00  1.350000E-01  0.000000E+00  1.350000E-01  0.000000E+00  1.350000E-01 
 0.000000E+00  1.350000E-01  0.000000E+00  1.350000E-01  0.000000E+00  1.350000E-01  0.000000E+00  1.350000E-01  0.000000E+00  1.350000E-01 
 0.000000E+00  1.350000E-01  0.000000E+00  1.350000E-01  0.000000E+00  1.350000E-01  0.000000E+00  1.350000E-01  0.000000E+00  1.350000E-01 
 0.000000E+00  1.350000E-01  0.000000E+00  1.350000E-01  0.000000E+00  1.350000E-01  0.000000E+00  1.350000E-01  0.000000E+00  1.350000E-01 
 0.000000E+00  1.350000E-01  0.000000E+00  1.350000E-01  0.000000E+00  1.350000E-01  0.000000E+00  1.350000E-01  0.000000E+00  1.350000E-01 
 0.000000E+00  1.350000E-01  0.000000E+00  1.350000E-01  0.000000E+00  1.350000E-01  0.000000E+00  1.350000E-01  0.000000E+00  1.350000E-01 
 0.000000E+00  1.350000E-01  0.000000E+00  1.350000E-01  0.000000E+00  1.350000E-01  0.000000E+00  1.350000E-01  0.000000E+00  1.350000E-01 
 0.000000E+00  1.350000E-01  0.000000E+00  1.350000E-01  0.000000E+00  1.350000E-01  0.000000E+00  1.350000E-01  0.000000E+00  1.350000E-01 
 0.000000E+00  1.350000E-01  0.000000E+00  1.350000E-01  0.000000E+00  1.350000E-01  0.000000E+00  1.350000E-01  0.000000E+00  1.350000E-01 
 0.000000E+00  1.350000E-01  0.000000E+00  1.350000E-01  0.000000E+00  1.350000E-01  0.000000E+00  1.350000E-01  0.000000E+00  1.350000E-01 
 0.000000E+00  1.350000E-01  0.000000E+00  1.350000E-01  0.000000E+00  1.350000E-01  0.000000E+00  1.350000E-01  0.000000E+00  1.350000E-01 
 0.000000E+00  1.350000E-01  0.000000E+00  1.350000E-01  0.000000E+00  1.350000E-01  0.000000E+00  1.350000E-01  0.000000E+00  1.350000E-01 
 0.000000E+00  1.350000E-01  0.000000E+00  1.350000E-01  0.000000E+00  1.350000E-01  0.000000E+00  1.350000E-01  0.000000E+00  1.350000E-01 
 0.000000E+00  1.350000E-01  0.000000E+00  1.350000E-01  0.000000E+00  1.350000E-01  0.000000E+00  1.350000E-01  0.000000E+00  1.350000E-01 
 0.000000E+00  1.350000E-01  0.000000E+00  1.350000E-01  0.000000E+00  1.350000E-01  0.000000E+00  1.350000E-01  0.000000E+00  1.350000E-01 
 0.000000E+00  1.350000E-01  0.000000E+00  1.350000E-01  0.000000E+00  1.350000E-01  0.000000E+00  1.350000E-01  0.000000E+00  1.350000E-01 
 0.000000E+00  1.350000E-01  0.000000E+00  1.350000E-01  0.000000E+00  1.350000E-01  0.000000E+00  1.350000E-01  0.000000E+00  1.350000E-01 
 0.000000E+00  1.350000E-01  0.000000E+00  1.350000E-01  0.000000E+00  1.350000E-01  0.000000E+00  1.350000E-01  0.000000E+00  1.350000E-01 
 0.000000E+00  1.350000E-01  0.000000E+00  1.350000E-01  0.000000E+00  1.350000E-01  0.000000E+00  1.350000E-01  0.000000E+00  1.350000E-01 
 0.000000E+00  1.350000E-01  0.000000E+00  1.350000E-01  0.000000E+00  1.350000E-01  0.000000E+00  1.350000E-01  0.000000E+00  1.350000E-01 
 0.000000E+00  1.350000E-01  0.000000E+00  1.350000E-01  0.000000E+00  1.350000E-01  0.000000E+00  1.350000E-01  0.000000E+00  1.350000E-01 
 0.000000E+00  1.350000E-01  0.000000E+00  1.350000E-01  0.000000E+00  1.350000E-01  0.000000E+00  1.350000E-01  0.000000E+00  1.350000E-01 
 0.000000E+00  1.350000E-01  0.000000E+00  1.350000E-01  0.000000E+00  1.350000E-01  0.000000E+00  1.350000E-01  0.000000E+00  1.350000E-01 
 0.000000E+00  1.350000E-01  0.000000E+00  1.350000E-01  0.000000E+00  1.350000E-01  0.000000E+00  1.350000E-01  0.000000E+00  1.350000E-01 
 0.000000E+00  1.350000E-01  0.000000E+00  1.350000E-01  0.000000E+00  1.350000E-01  0.000000E+00  1.350000E-01  0.000000E+00  1.350000E-01 
 0.000000E+00  1.350000E-01  0.000000E+00  1.350000E-01  0.000000E+00  1.350000E-01  0.000000E+00  1.350000E-01  0.000000E+00  1.350000E-01 
 0.000000E+00  1.350000E-01  0.000000E+00  1.350000E-01  0.000000E+00  1.350000E-01  0.000000E+00  1.350000E-01  0.000000E+00  1.350000E-01 
 0.000000E+00  1.350000E-01  0.000000E+00  1.350000E-01  0.000000E+00  1.350000E-01  0.000000E+00  1.350000E-01  0.000000E+00  1.350000E-01 
 0.000000E+00  1.350000E-01  0.000000E+00  1.350000E-01  0.000000E+00  1.350000E-01  0.000000E+00  1.350000E-01  0.000000E+00  1.350000E-01 
 0.000000E+00  1.350000E-01  0.000000E+00  1.350000E-01  0.000000E+00  1.350000E-01  0.000000E+00  1.350000E-01  0.000000E+00  1.350000E-01 
 0.000000E+00  1.350000E-01  0.000000E+00  1.350000E-01 
 0.000000E+00  0.000000E+00  1.350000E-01  1.350000E-01  0.000000E+00  0.000000E+00  1.350000E-01  1.350000E-01  0.000000E+00  0.000000E+00 
 1.350000E-01  1.350000E-01  0.000000E+00  0.000000E+00  1.350000E-01  1.350000E-01  0.000000E+00  0.000000E+00  1.350000E-01  1.350000E-01 
 0.000000E+00  0.000000E+00  1.350000E-01  1.350000E-01  0.000000E+00  0.000000E+00  1.350000E-01  1.350000E-01  0.000000E+00  0.000000E+00 
 1.350000E-01  1.350000E-01  0.000000E+00  0.000000E+00  1.350000E-01  1.350000E-01  0.000000E+00  0.000000E+00  1.350000E-01  1.350000E-01 
 0.000000E+00  0.000000E+00  1.350000E-01  1.350000E-01  0.000000E+00  0.000000E+00  1.350000E-01  1.350000E-01  0.000000E+00  0.000000E+00 
 1.350000E-01  1.350000E-01  0.000000E+00  0.000000E+00  1.350000E-01  1.350000E-01  0.000000E+00  0.000000E+00  1.350000E-01  1.350000E-01 
 0.000000E+00  0.000000E+00  1.350000E-01  1.350000E-01  0.000000E+00  0.000000E+00  1.350000E-01  1.350000E-01  0.000000E+00  0.000000E+00 
 1.350000E-01  1.350000E-01  0.000000E+00  0.000000E+00  1.350000E-01  1.350000E-01  0.000000E+00  0.000000E+00  1.350000E-01  1.350000E-01 
 0.000000E+00  0.000000E+00  1.350000E-01  1.350000E-01  0.000000E+00  0.000000E+00  1.350000E-01  1.350000E-01  0.000000E+00  0.000000E+00 
 1.350000E-01  1.350000E-01  0.000000E+00  0.000000E+00  1.350000E-01  1.350000E-01  0.000000E+00  0.000000E+00  1.350000E-01  1.350000E-01 
 0.000000E+00  0.000000E+00  1.350000E-01  1.350000E-01  0.000000E+00  0.000000E+00  1.350000E-01  1.350000E-01  0.000000E+00  0.000000E+00 
 1.350000E-01  1.350000E-01  0.000000E+00  0.000000E+00  1.350000E-01  1.350000E-01  0.000000E+00  0.000000E+00  1.350000E-01  1.350000E-01 
 0.000000E+00  0.000000E+00  1.350000E-01  1.350000E-01  0.000000E+00  0.000000E+00  1.350000E-01  1.350000E-01  0.000000E+00  0.000000E+00 
 1.350000E-01  1.350000E-01  0.000000E+00  0.000000E+00  1.350000E-01  1.350000E-01  0.000000E+00  0.000000E+00  1.350000E-01  1.350000E-01 
 0.000000E+00  0.000000E+00  1.350000E-01  1.350000E-01  0.000000E+00  0.000000E+00  1.350000E-01  1.350000E-01  0.000000E+00  0.000000E+00 
 1.350000E-01  1.350000E-01  0.000000E+00  0.000000E+00  1.350000E-01  1.350000E-01  0.000000E+00  0.000000E+00  1.350000E-01  1.350000E-01 
 0.000000E+00  0.000000E+00  1.350000E-01  1.350000E-01  0.000000E+00  0.000000E+00  1.350000E-01  1.350000E-01  0.000000E+00  0.000000E+00 
 1.350000E-01  1.350000E-01  0.000000E+00  0.000000E+00  1.350000E-01  1.350000E-01  0.000000E+00  0.000000E+00  1.350000E-01  1.350000E-01 
 0.000000E+00  0.000000E+00  1.350000E-01  1.350000E-01  0.000000E+00  0.000000E+00  1.350000E-01  1.350000E-01  0.000000E+00  0.000000E+00 
 1.350000E-01  1.350000E-01  0.000000E+00  0.000000E+00  1.350000E-01  1.350000E-01  0.000000E+00  0.000000E+00  1.350000E-01  1.350000E-01 
 0.000000E+00  0.000000E+00  1.350000E-01  1.350000E-01  0.000000E+00  0.000000E+00  1.350000E-01  1.350000E-01  0.000000E+00  0.000000E+00 
 1.350000E-01  1.350000E-01  0.000000E+00  0.000000E+00  1.350000E-01  1.350000E-01  0.000000E+00  0.000000E+00  1.350000E-01  1.350000E-01 
 0.000000E+00  0.000000E+00  1.350000E-01  1.350000E-01  0.000000E+00  0.000000E+00  1.350000E-01  1.350000E-01  0.000000E+00  0.000000E+00 
 1.350000E-01  1.350000E-01  0.000000E+00  0.000000E+00  1.350000E-01  1.350000E-01  0.000000E+00  0.000000E+00  1.350000E-01  1.350000E-01 
 0.000000E+00  0.000000E+00  1.350000E-01  1.350000E-01  0.000000E+00  0.000000E+00  1.350000E-01  1.350000E-01  0.000000E+00  0.000000E+00 
 1.350000E-01  1.350000E-01  0.000000E+00  0.000000E+00  1.350000E-01  1.350000E-01  0.000000E+00  0.000000E+00  1.350000E-01  1.350000E-01 
 0.000000E+00  0.000000E+00  1.350000E-01  1.350000E-01  0.000000E+00  0.000000E+00  1.350000E-01  1.350000E-01  0.000000E+00  0.000000E+00 
 1.350000E-01  1.350000E-01  0.000000E+00  0.000000E+00  1.350000E-01  1.350000E-01  0.000000E+00  0.000000E+00  1.350000E-01  1.350000E-01 
 0.000000E+00  0.000000E+00  1.350000E-01  1.350000E-01  0.000000E+00  0.000000E+00  1.350000E-01  1.350000E-01  0.000000E+00  0.000000E+00 
 1.350000E-01  1.350000E-01  0.000000E+00  0.000000E+00  1.350000E-01  1.350000E-01  0.000000E+00  0.000000E+00  1.350000E-01  1.350000E-01 
 0.000000E+00  0.000000E+00  1.350000E-01  1.350000E-01  0.000000E+00  0.000000E+00  1.350000E-01  1.350000E-01  0.000000E+00  0.000000E+00 
 1.350000E-01  1.350000E-01  0.000000E+00  0.000000E+00  1.350000E-01  1.350000E-01  0.000000E+00  0.000000E+00  1.350000E-01  1.350000E-01 
 0.000000E+00  0.000000E+00  1.350000E-01  1.350000E-01  0.000000E+00  0.000000E+00  1.350000E-01  1.350000E-01  0.000000E+00  0.000000E+00 
 1.350000E-01  1.350000E-01  0.000000E+00  0.000000E+00  1.350000E-01  1.350000E-01  0.000000E+00  0.000000E+00  1.350000E-01  1.350000E-01 
 0.000000E+00  0.000000E+00  1.350000E-01  1.350000E-01  0.000000E+00  0.000000E+00  1.350000E-01  1.350000E-01  0.000000E+00  0.000000E+00 
 1.350000E-01  1.350000E-01  0.000000E+00  0.000000E+00  1.350000E-01  1.350000E-01  0.000000E+00  0.000000E+00  1.350000E-01  1.350000E-01 
 0.000000E+00  0.000000E+00  1.350000E-01  1.350000E-01  0.000000E+00  0.000000E+00  1.350000E-01  1.350000E-01  0.000000E+00  0.000000E+00 
 1.350000E-01  1.350000E-01  0.000000E+00  0.000000E+00  1.350000E-01  1.350000E-01  0.000000E+00  0.000000E+00  1.350000E-01  1.350000E-01 
 0.000000E+00  0.000000E+00  1.350000E-01  1.350000E-01  0.000000E+00  0.000000E+00  1.350000E-01  1.350000E-01  0.000000E+00  0.000000E+00 
 1.350000E-01  1.350000E-01  0.000000E+00  0.000000E+00  1.350000E-01  1.350000E-01  0.000000E+00  0.000000E+00  1.350000E-01  1.350000E-01 
 0.000000E+00  0.000000E+00  1.350000E-01  1.350000E-01 
-3.000000E-01 -3.000000E-01 -3.000000E-01 -3.000000E-01 -2.970000E-01 -2.970000E-01 -2.970000E-01 -2.970000E-01 -2.940000E-01 -2.940000E-01 
-2.940000E-01 -2.940000E-01 -2.910000E-01 -2.910000E-01 -2.910000E-01 -2.910000E-01 -2.880000E-01 -2.880000E-01 -2.880000E-01 -2.880000E-01 
-2.850000E-01 -2.850000E-01 -2.850000E-01 -2.850000E-01 -2.820000E-01 -2.820000E-01 -2.820000E-01 -2.820000E-01 -2.790000E-01 -2.790000E-01 
-2.790000E-01 -2.790000E-01 -2.760000E-01 -2.760000E-01 -2.760000E-01 -2.760000E-01 -2.730000E-01 -2.730000E-01 -2.730000E-01 -2.730000E-01 
-2.700000E-01 -2.700000E-01 -2.700000E-01 -2.700000E-01 -2.670000E-01 -2.670000E-01 -2.670000E-01 -2.670000E-01 -2.640000E-01 -2.640000E-01 
-2.640000E-01 -2.640000E-01 -2.610000E-01 -2.610000E-01 -2.610000E-01 -2.610000E-01 -2.580000E-01 -2.580000E-01 -2.580000E-01 -2.580000E-01 
-2.550000E-01 -2.550000E-01 -2.550000E-01 -2.550000E-01 -2.520000E-01 -2.520000E-01 -2.520000E-01 -2.520000E-01 -2.490000E-01 -2.490000E-01 
-2.490000E-01 -2.490000E-01 -2.460000E-01 -2.460000E-01 -2.460000E-01 -2.460000E-01 -2.430000E-01 -2.430000E-01 -2.430000E-01 -2.430000E-01 
-2.400000E-01 -2.400000E-01 -2.400000E-01 -2.400000E-01 -2.370000E-01 -2.370000E-01 -2.370000E-01 -2.370000E-01 -2.340000E-01 -2.340000E-01 
-2.340000E-01 -2.340000E-01 -2.310000E-01 -2.310000E-01 -2.310000E-01 -2.310000E-01 -2.280000E-01 -2.280000E-01 -2.280000E-01 -2.280000E-01 
-2.250000E-01 -2.250000E-01 -2.250000E-01 -2.250000E-01 -2.220000E-01 -2.220000E-01 -2.220000E-01 -2.220000E-01 -2.190000E-01 -2.190000E-01 
-2.190000E-01 -2.190000E-01 -2.160000E-01 -2.160000E-01 -2.160000E-01 -2.160000E-01 -2.130000E-01 -2.130000E-01 -2.130000E-01 -2.130000E-01 
-2.100000E-01 -2.100000E-01 -2.100000E-01 -2.100000E-01 -2.070000E-01 -2.070000E-01 -2.070000E-01 -2.070000E-01 -2.040000E-01 -2.040000E-01 
-2.040000E-01 -2.040000E-01 -2.010000E-01 -2.010000E-01 -2.010000E-01 -2.010000E-01 -1.980000E-01 -1.980000E-01 -1.980000E-01 -1.980000E-01 
-1.950000E-01 -1.950000E-01 -1.950000E-01 -1.950000E-01 -1.920000E-01 -1.920000E-01 -1.920000E-01 -1.920000E-01 -1.890000E-01 -1.890000E-01 
-1.890000E-01 -1.890000E-01 -1.860000E-01 -1.860000E-01 -1.860000E-01 -1.860000E-01 -1.830000E-01 -1.830000E-01 -1.830000E-01 -1.830000E-01 
-1.800000E-01 -1.800000E-01 -1.800000E-01 -1.800000E-01 -1.770000E-01 -1.770000E-01 -1.770000E-01 -1.770000E-01 -1.740000E-01 -1.740000E-01 
-1.740000E-01 -1.740000E-01 -1.710000E-01 -1.710000E-01 -1.710000E-01 -1.710000E-01 -1.680000E-01 -1.680000E-01 -1.680000E-01 -1.680000E-01 
-1.650000E-01 -1.650000E-01 -1.650000E-01 -1.650000E-01 -1.620000E-01 -1.620000E-01 -1.620000E-01 -1.620000E-01 -1.590000E-01 -1.590000E-01 
-1.590000E-01 -1.590000E-01 -1.560000E-01 -1.560000E-01 -1.560000E-01 -1.560000E-01 -1.530000E-01 -1.530000E-01 -1.530000E-01 -1.530000E-01 
-1.500000E-01 -1.500000E-01 -1.500000E-01 -1.500000E-01 -1.470000E-01 -1.470000E-01 -1.470000E-01 -1.470000E-01 -1.440000E-01 -1.440000E-01 
-1.440000E-01 -1.440000E-01 -1.410000E-01 -1.410000E-01 -1.410000E-01 -1.410000E-01 -1.380000E-01 -1.380000E-01 -1.380000E-01 -1.380000E-01 
-1.350000E-01 -1.350000E-01 -1.350000E-01 -1.350000E-01 -1.320000E-01 -1.320000E-01 -1.320000E-01 -1.320000E-01 -1.290000E-01 -1.290000E-01 
-1.290000E-01 -1.290000E-01 -1.260000E-01 -1.260000E-01 -1.260000E-01 -1.260000E-01 -1.230000E-01 -1.230000E-01 -1.230000E-01 -1.230000E-01 
-1.200000E-01 -1.200000E-01 -1.200000E-01 -1.200000E-01 -1.170000E-01 -1.170000E-01 -1.170000E-01 -1.170000E-01 -1.140000E-01 -1.140000E-01 
-1.140000E-01 -1.140000E-01 -1.110000E-01 -1.110000E-01 -1.110000E-01 -1.110000E-01 -1.080000E-01 -1.080000E-01 -1.080000E-01 -1.080000E-01 
-1.050000E-01 -1.050000E-01 -1.050000E-01 -1.050000E-01 -1.020000E-01 -1.020000E-01 -1.020000E-01 -1.020000E-01 -9.900000E-02 -9.900000E-02 
-9.900000E-02 -9.900000E-02 -9.600000E-02 -9.600000E-02 -9.600000E-02 -9.600000E-02 -9.300000E-02 -9.300000E-02 -9.300000E-02 -9.300000E-02 
-9.000000E-02 -9.000000E-02 -9.000000E-02 -9.000000E-02 -8.700000E-02 -8.700000E-02 -8.700000E-02 -8.700000E-02 -8.400000E-02 -8.400000E-02 
-8.400000E-02 -8.400000E-02 -8.100000E-02 -8.100000E-02 -8.100000E-02 -8.100000E-02 -7.800000E-02 -7.800000E-02 -7.800000E-02 -7.800000E-02 
-7.500000E-02 -7.500000E-02 -7.500000E-02 -7.500000E-02 -7.200000E-02 -7.200000E-02 -7.200000E-02 -7.200000E-02 -6.900000E-02 -6.900000E-02 
-6.900000E-02 -6.900000E-02 -6.600000E-02 -6.600000E-02 -6.600000E-02 -6.600000E-02 -6.300000E-02 -6.300000E-02 -6.300000E-02 -6.300000E-02 
-6.000000E-02 -6.000000E-02 -6.000000E-02 -6.000000E-02 -5.700000E-02 -5.700000E-02 -5.700000E-02 -5.700000E-02 -5.400000E-02 -5.400000E-02 
-5.400000E-02 -5.400000E-02 -5.100000E-02 -5.100000E-02 -5.100000E-02 -5.100000E-02 -4.800000E-02 -4.800000E-02 -4.800000E-02 -4.800000E-02 
-4.500000E-02 -4.500000E-02 -4.500000E-02 -4.500000E-02 -4.200000E-02 -4.200000E-02 -4.200000E-02 -4.200000E-02 -3.900000E-02 -3.900000E-02 
-3.900000E-02 -3.900000E-02 -3.600000E-02 -3.600000E-02 -3.600000E-02 -3.600000E-02 -3.300000E-02 -3.300000E-02 -3.300000E-02 -3.300000E-02 
-3.000000E-02 -3.000000E-02 -3.000000E-02 -3.000000E-02 -2.700000E-02 -2.700000E-02 -2.700000E-02 -2.700000E-02 -2.400000E-02 -2.400000E-02 
-2.400000E-02 -2.400000E-02 -2.100000E-02 -2.100000E-02 -2.100000E-02 -2.100000E-02 -1.800000E-02 -1.800000E-02 -1.800000E-02 -1.800000E-02 
-1.500000E-02 -1.500000E-02 -1.500000E-02 -1.500000E-02 -1.200000E-02 -1.200000E-02 -1.200000E-02 -1.200000E-02 -9.000000E-03 -9.000000E-03 
-9.000000E-03 -9.000000E-03 -6.000000E-03 -6.000000E-03 -6.000000E-03 -6.000000E-03 -3.000000E-03 -3.000000E-03 -3.000000E-03 -3.000000E-03 
 2.419939E-16  2.419939E-16  2.419939E-16  2.419939E-16 
 0.000000E+00  0.000000E+00  0.000000E+00  0.000000E+00  0.000000E+00  0.000000E+00  0.000000E+00  0.000000E+00  0.000000E+00  0.000000E+00
 0.000000E+00  0.000000E+00  0.000000E+00  0.000000E+00  0.000000E+00  0.000000E+00  0.000000E+00  0.000000E+00  0.000000E+00  0.000000E+00
 0.000000E+00  0.000000E+00  0.000000E+00  0.000000E+00  0.000000E+00  0.000000E+00  0.000000E+00  0.000000E+00  0.000000E+00  0.000000E+00
 0.000000E+00  0.000000E+00  0.000000E+00  0.000000E+00  0.000000E+00  0.000000E+00  0.000000E+00  0.000000E+00  0.000000E+00  0.000000E+00
 0.000000E+00  0.000000E+00  0.000000E+00  0.000000E+00  0.000000E+00  0.000000E+00  0.000000E+00  0.000000E+00  0.000000E+00  0.000000E+00
 0.000000E+00  0.000000E+00  0.000000E+00  0.000000E+00  0.000000E+00  0.000000E+00  0.000000E+00  0.000000E+00  0.000000E+00  0.000000E+00
 0.000000E+00  0.000000E+00  0.000000E+00  0.000000E+00  0.000000E+00  0.000000E+00  0.000000E+00  0.000000E+00  0.000000E+00  0.000000E+00
 0.000000E+00  0.000000E+00  0.000000E+00  0.000000E+00  0.000000E+00  0.000000E+00  0.000000E+00  0.000000E+00  0.000000E+00  0.000000E+00
 0.000000E+00  0.000000E+00  0.000000E+00  0.000000E+00  0.000000E+00  0.000000E+00  0.000000E+00  0.000000E+00  0.000000E+00  0.000000E+00
 0.000000E+00  0.000000E+00  0.000000E+00  0.000000E+00  0.000000E+00  0.000000E+00  0.000000E+00  0.000000E+00  0.000000E+00  0.000000E+00
 0.000000E+00  0.000000E+00  0.000000E+00  0.000000E+00  0.000000E+00  0.000000E+00  0.000000E+00  0.000000E+00  0.000000E+00  0.000000E+00
 0.000000E+00  0.000000E+00  0.000000E+00  0.000000E+00  0.000000E+00  0.000000E+00  0.000000E+00  0.000000E+00  0.000000E+00  0.000000E+00
 0.000000E+00  0.000000E+00  0.000000E+00  0.000000E+00  0.000000E+00  0.000000E+00  0.000000E+00  0.000000E+00  0.000000E+00  0.000000E+00
 0.000000E+00  0.000000E+00  0.000000E+00  0.000000E+00  0.000000E+00  0.000000E+00  0.000000E+00  0.000000E+00  0.000000E+00  0.000000E+00
 0.000000E+00  0.000000E+00  0.000000E+00  0.000000E+00  0.000000E+00  0.000000E+00  0.000000E+00  0.000000E+00  0.000000E+00  0.000000E+00
 0.000000E+00  0.000000E+00  0.000000E+00  0.000000E+00  0.000000E+00  0.000000E+00  0.000000E+00  0.000000E+00  0.000000E+00  0.000000E+00
 0.000000E+00  0.000000E+00  0.000000E+00  0.000000E+00  0.000000E+00  0.000000E+00  0.000000E+00  0.000000E+00  0.000000E+00  0.000000E+00
 0.000000E+00  0.000000E+00  0.000000E+00  0.000000E+00  0.000000E+00  0.000000E+00  0.000000E+00  0.000000E+00  0.000000E+00  0.000000E+00
 0.000000E+00  0.000000E+00  0.000000E+00  0.000000E+00  0.000000E+00  0.000000E+00  0.000000E+00  0.000000E+00  0.000000E+00  0.000000E+00
 0.000000E+00  0.000000E+00  0.000000E+00  0.000000E+00  0.000000E+00  0.000000E+00  0.000000E+00  0.000000E+00  0.000000E+00  0.000000E+00
-9.999942E-03 -9.999942E-03 -9.999943E-03 -9.999944E-03 -9.999944E-03 -9.999945E-03 -9.999945E-03 -9.999946E-03 -9.999947E-03 -9.999947E-03
-9.999948E-03 -9.999948E-03 -9.999949E-03 -9.999950E-03 -9.999950E-03 -9.999951E-03 -9.999952E-03 -9.999952E-03 -9.999953E-03 -9.999954E-03
-9.999954E-03 -9.999955E-03 -9.999955E-03 -9.999956E-03 -9.999957E-03 -9.999957E-03 -9.999958E-03 -9.999958E-03 -9.999959E-03 -9.999960E-03
-9.999960E-03 -9.999961E-03 -9.999961E-03 -9.999962E-03 -9.999963E-03 -9.999963E-03 -9.999964E-03 -9.999964E-03 -9.999965E-03 -9.999966E-03
-9.999966E-03 -9.999967E-03 -9.999967E-03 -9.999968E-03 -9.999969E-03 -9.999969E-03 -9.999970E-03 -9.999970E-03 -9.999971E-03 -9.999972E-03
-9.999972E-03 -9.999973E-03 -9.999973E-03 -9.999974E-03 -9.999975E-03 -9.999975E-03 -9.999976E-03 -9.999976E-03 -9.999977E-03 -9.999977E-03
-9.999978E-03 -9.999979E-03 -9.999979E-03 -9.999980E-03 -9.999980E-03 -9.999981E-03 -9.999981E-03 -9.999982E-03 -9.999983E-03 -9.999983E-03
-9.999984E-03 -9.999984E-03 -9.999985E-03 -9.999985E-03 -9.999986E-03 -9.999987E-03 -9.999987E-03 -9.999988E-03 -9.999988E-03 -9.999989E-03
-9.999989E-03 -9.999990E-03 -9.999990E-03 -9.999991E-03 -9.999992E-03 -9.999992E-03 -9.999993E-03 -9.999993E-03 -9.999994E-03 -9.999994E-03
-9.999995E-03 -9.999995E-03 -9.999996E-03 -9.999996E-03 -9.999997E-03 -9.999998E-03 -9.999998E-03 -9.999999E-03 -9.999999E-03 -6.666666E-03
 0.000000E+00  0.000000E+00  0.000000E+00  0.000000E+00  0.000000E+00  0.000000E+00  0.000000E+00  0.000000E+00  0.000000E+00  0.000000E+00
 0.000000E+00  0.000000E+00  0.000000E+00  0.000000E+00  0.000000E+00  0.000000E+00  0.000000E+00  0.000000E+00  0.000000E+00  0.000000E+00
 0.000000E+00  0.000000E+00  0.000000E+00  0.000000E+00  0.000000E+00  0.000000E+00  0.000000E+00  0.000000E+00  0.000000E+00  0.000000E+00
 0.000000E+00  0.000000E+00  0.000000E+00  0.000000E+00  0.000000E+00  0.000000E+00  0.000000E+00  0.000000E+00  0.000000E+00  0.000000E+00
 0.000000E+00  0.000000E+00  0.000000E+00  0.000000E+00  0.000000E+00  0.000000E+00  0.000000E+00  0.000000E+00  0.000000E+00  0.000000E+00
 0.000000E+00  0.000000E+00  0.000000E+00  0.000000E+00  0.000000E+00  0.000000E+00  0.000000E+00  0.000000E+00  0.000000E+00  0.000000E+00
 0.000000E+00  0.000000E+00  0.000000E+00  0.000000E+00  0.000000E+00  0.000000E+00  0.000000E+00  0.000000E+00  0.000000E+00  0.000000E+00
 0.000000E+00  0.000000E+00  0.000000E+00  0.000000E+00  0.000000E+00  0.000000E+00  0.000000E+00  0.000000E+00  0.000000E+00  0.000000E+00
 0.000000E+00  0.000000E+00  0.000000E+00  0.000000E+00  0.000000E+00  0.000000E+00  0.000000E+00  0.000000E+00  0.000000E+00  0.000000E+00
 0.000000E+00  0.000000E+00  0.000000E+00  0.000000E+00  0.000000E+00  0.000000E+00  0.000000E+00  0.000000E+00  0.000000E+00  0.000000E+00
 0.000000E+00  0.000000E+00  0.000000E+00  0.000000E+00  0.000000E+00  0.000000E+00  0.000000E+00  0.000000E+00  0.000000E+00  0.000000E+00
 0.000000E+00  0.000000E+00  0.000000E+00  0.000000E+00  0.000000E+00  0.000000E+00  0.000000E+00  0.000000E+00  0.000000E+00  0.000000E+00
 0.000000E+00  0.000000E+00  0.000000E+00  0.000000E+00  0.000000E+00  0.000000E+00  0.000000E+00  0.000000E+00  0.000000E+00  0.000000E+00
 0.000000E+00  0.000000E+00  0.000000E+00  0.000000E+00  0.000000E+00  0.000000E+00  0.000000E+00  0.000000E+00  0.000000E+00  0.000000E+00
 0.000000E+00  0.000000E+00  0.000000E+00  0.000000E+00  0.000000E+00  0.000000E+00  0.000000E+00  0.000000E+00  0.000000E+00  0.000000E+00
 0.000000E+00  0.000000E+00  0.000000E+00  0.000000E+00  0.000000E+00  0.000000E+00  0.000000E+00  0.000000E+00  0.000000E+00  0.000000E+00
 0.000000E+00  0.000000E+00  0.000000E+00  0.000000E+00  0.000000E+00  0.000000E+00  0.000000E+00  0.000000E+00  0.000000E+00  0.000000E+00
 0.000000E+00  0.000000E+00  0.000000E+00  0.000000E+00  0.000000E+00  0.000000E+00  0.000000E+00  0.000000E+00  0.000000E+00  0.000000E+00
 0.000000E+00  0.000000E+00  0.000000E+00  0.000000E+00  0.000000E+00  0.000000E+00  0.000000E+00  0.000000E+00  0.000000E+00  0.000000E+00
 0.000000E+00  0.000000E+00  0.000000E+00  0.000000E+00  0.000000E+00  0.000000E+00  0.000000E+00  0.000000E+00  0.000000E+00  0.000000E+00
-1.407045E-09 -1.403568E-09 -1.397043E-09 -1.387770E-09 -1.375942E-09 -1.361700E-09 -1.345156E-09 -1.326400E-09 -1.305513E-09 -1.282568E-09
-1.257627E-09 -1.230746E-09 -1.395468E-08 -1.404052E-08 -1.363720E-09 -1.315886E-09 -1.271534E-09 -1.230640E-09 -1.193102E-09 -1.158760E-09
-1.127441E-09 -1.098956E-09 -1.073112E-09 -1.049748E-09 -1.028693E-09 -1.009795E-09 -9.929152E-10 -9.779326E-10 -9.647402E-10 -9.532316E-10
-9.433222E-10 -9.349332E-10 -9.279945E-10 -9.224477E-10 -9.182293E-10 -1.373546E-08 -2.642659E-08 -2.616395E-08 -2.588932E-08 -2.560595E-08
-2.531654E-08 -2.586266E-08 -2.627724E-08 -2.520322E-08 -2.269861E-08 -2.015248E-08 -1.880998E-08 -1.795813E-08 -1.734557E-08 -1.686090E-08
-1.644769E-08 -1.607501E-08 -1.572501E-08 -1.538725E-08 -1.505565E-08 -1.472685E-08 -1.439923E-08 -1.407227E-08 -1.374614E-08 -1.342145E-08
-1.309906E-08 -1.277994E-08 -1.246511E-08 -1.215554E-08 -1.185217E-08 -1.155579E-08 -1.126715E-08 -1.098685E-08 -1.071539E-08 -1.045318E-08
-1.020051E-08 -9.957587E-09 -9.724545E-09 -9.501441E-09 -9.288265E-09 -9.084954E-09 -8.891408E-09 -8.707483E-09 -8.533000E-09 -8.367762E-09
-8.211556E-09 -8.064140E-09 -7.925273E-09 -7.794707E-09 -7.672187E-09 -7.557455E-09 -7.450254E-09 -7.350339E-09 -7.257458E-09 -7.171364E-09
-7.091820E-09 -7.018600E-09 -6.951480E-09 -6.890239E-09 -6.833121E-09 -6.776188E-09 -6.721393E-09 -6.672831E-09 -6.630198E-09 -1.896731E-06
 1  1  1  1  1  1  1  1  1  1
 1  1  1  1  1  1  1  1  1  1
 1  1  1  1  1  1  1  1  1  1
 1  1  1  1  1  1  1  1  1  1
 1  1  1  1  1  1  1  1  1  1
 1  1  1  1  1  1  1  1  1  1
 1  1  1  1  1  1  1  1  1  1
 1  1  1  1  1  1  1  1  1  1
 1  1  1  1  1  1  1  1  1  1
 1  1  1  1  1  1  1  1  1  1
