TITLE = "  1.00000E+00 [h]"
VARIABLES="X [m]","Y [m]","Z [m]","qlx [m/h]","qly [m/h]","qlz [m/h]","qgx [m/h]","qgy [m/h]","qgz [m/h]","Material_ID"
ZONE T="1.00000E+00", STRANDID=1, SOLUTIONTIME=1.00000E+00, I=51, J=2, K=51, VARLOCATION=([4-10]=CELLCENTERED), DATAPACKING=BLOCK
 0.000000E+00  2.000000E-02  4.000000E-02  6.000000E-02  8.000000E-02  1.000000E-01  1.200000E-01  1.400000E-01  1.600000E-01  1.800000E-01 
 2.000000E-01  2.200000E-01  2.400000E-01  2.600000E-01  2.800000E-01  3.000000E-01  3.200000E-01  3.400000E-01  3.600000E-01  3.800000E-01 
 4.000000E-01  4.200000E-01  4.400000E-01  4.600000E-01  4.800000E-01  5.000000E-01  5.200000E-01  5.400000E-01  5.600000E-01  5.800000E-01 
 6.000000E-01  6.200000E-01  6.400000E-01  6.600000E-01  6.800000E-01  7.000000E-01  7.200000E-01  7.400000E-01  7.600000E-01  7.800000E-01 
 8.000000E-01  8.200000E-01  8.400000E-01  8.600000E-01  8.800000E-01  9.000000E-01  9.200000E-01  9.400000E-01  9.600000E-01  9.800000E-01 
 1.000000E+00  0.000000E+00  2.000000E-02  4.000000E-02  6.000000E-02  8.000000E-02  1.000000E-01  1.200000E-01  1.400000E-01  1.600000E-01 
 1.800000E-01  2.000000E-01  2.200000E-01  2.400000E-01  2.600000E-01  2.800000E-01  3.000000E-01  3.200000E-01  3.400000E-01  3.600000E-01 
 3.800000E-01  4.000000E-01  4.200000E-01  4.400000E-01  4.600000E-01  4.800000E-01  5.000000E-01  5.200000E-01  5.400000E-01  5.600000E-01 
 5.800000E-01  6.000000E-01  6.200000E-01  6.400000E-01  6.600000E-01  6.800000E-01  7.000000E-01  7.200000E-01  7.400000E-01  7.600000E-01 
 7.800000E-01  8.000000E-01  8.200000E-01  8.400000E-01  8.600000E-01  8.800000E-01  9.000000E-01  9.200000E-01  9.400000E-01  9.600000E-01 
 9.800000E-01  1.000000E+00  0.000000E+00  2.000000E-02  4.000000E-02  6.000000E-02  8.000000E-02  1.000000E-01  1.200000E-01  1.400000E-01 
 1.600000E-01  1.800000E-01  2.000000E-01  2.200000E-01  2.400000E-01  2.600000E-01  2.800000E-01  3.000000E-01  3.200000E-01  3.400000E-01 
 3.600000E-01  3.800000E-01  4.000000E-01  4.200000E-01  4.400000E-01  4.600000E-01  4.800000E-01  5.000000E-01  5.200000E-01  5.400000E-01 
 5.600000E-01  5.800000E-01  6.000000E-01  6.200000E-01  6.400000E-01  6.600000E-01  6.800000E-01  7.000000E-01  7.200000E-01  7.400000E-01 
 7.600000E-01  7.800000E-01  8.000000E-01  8.200000E-01  8.400000E-01  8.600000E-01  8.800000E-01  9.000000E-01  9.200000E-01  9.400000E-01 
 9.600000E-01  9.800000E-01  1.000000E+00  0.000000E+00  2.000000E-02  4.000000E-02  6.000000E-02  8.000000E-02  1.000000E-01  1.200000E-01 
 1.400000E-01  1.600000E-01  1.800000E-01  2.000000E-01  2.200000E-01  2.400000E-01  2.600000E-01  2.800000E-01  3.000000E-01  3.200000E-01 
 3.400000E-01  3.600000E-01  3.800000E-01  4.000000E-01  4.200000E-01  4.400000E-01  4.600000E-01  4.800000E-01  5.000000E-01  5.200000E-01 
 5.400000E-01  5.600000E-01  5.800000E-01  6.000000E-01  6.200000E-01  6.400000E-01  6.600000E-01  6.800000E-01  7.000000E-01  7.200000E-01 
 7.400000E-01  7.600000E-01  7.800000E-01  8.000000E-01  8.200000E-01  8.400000E-01  8.600000E-01  8.800000E-01  9.000000E-01  9.200000E-01 
 9.400000E-01  9.600000E-01  9.800000E-01  1.000000E+00  0.000000E+00  2.000000E-02  4.000000E-02  6.000000E-02  8.000000E-02  1.000000E-01 
 1.200000E-01  1.400000E-01  1.600000E-01  1.800000E-01  2.000000E-01  2.200000E-01  2.400000E-01  2.600000E-01  2.800000E-01  3.000000E-01 
 3.200000E-01  3.400000E-01  3.600000E-01  3.800000E-01  4.000000E-01  4.200000E-01  4.400000E-01  4.600000E-01  4.800000E-01  5.000000E-01 
 5.200000E-01  5.400000E-01  5.600000E-01  5.800000E-01  6.000000E-01  6.200000E-01  6.400000E-01  6.600000E-01  6.800000E-01  7.000000E-01 
 7.200000E-01  7.400000E-01  7.600000E-01  7.800000E-01  8.000000E-01  8.200000E-01  8.400000E-01  8.600000E-01  8.800000E-01  9.000000E-01 
 9.200000E-01  9.400000E-01  9.600000E-01  9.800000E-01  1.000000E+00  0.000000E+00  2.000000E-02  4.000000E-02  6.000000E-02  8.000000E-02 
 1.000000E-01  1.200000E-01  1.400000E-01  1.600000E-01  1.800000E-01  2.000000E-01  2.200000E-01  2.400000E-01  2.600000E-01  2.800000E-01 
 3.000000E-01  3.200000E-01  3.400000E-01  3.600000E-01  3.800000E-01  4.000000E-01  4.200000E-01  4.400000E-01  4.600000E-01  4.800000E-01 
 5.000000E-01  5.200000E-01  5.400000E-01  5.600000E-01  5.800000E-01  6.000000E-01  6.200000E-01  6.400000E-01  6.600000E-01  6.800000E-01 
 7.000000E-01  7.200000E-01  7.400000E-01  7.600000E-01  7.800000E-01  8.000000E-01  8.200000E-01  8.400000E-01  8.600000E-01  8.800000E-01 
 9.000000E-01  9.200000E-01  9.400000E-01  9.600000E-01  9.800000E-01  1.000000E+00  0.000000E+00  2.000000E-02  4.000000E-02  6.000000E-02 
 8.000000E-02  1.000000E-01  1.200000E-01  1.400000E-01  1.600000E-01  1.800000E-01  2.000000E-01  2.200000E-01  2.400000E-01  2.600000E-01 
 2.800000E-01  3.000000E-01  3.200000E-01  3.400000E-01  3.600000E-01  3.800000E-01  4.000000E-01  4.200000E-01  4.400000E-01  4.600000E-01 
 4.800000E-01  5.000000E-01  5.200000E-01  5.400000E-01  5.600000E-01  5.800000E-01  6.000000E-01  6.200000E-01  6.400000E-01  6.600000E-01 
 6.800000E-01  7.000000E-01  7.200000E-01  7.400000E-01  7.600000E-01  7.800000E-01  8.000000E-01  8.200000E-01  8.400000E-01  8.600000E-01 
 8.800000E-01  9.000000E-01  9.200000E-01  9.400000E-01  9.600000E-01  9.800000E-01  1.000000E+00  0.000000E+00  2.000000E-02  4.000000E-02 
 6.000000E-02  8.000000E-02  1.000000E-01  1.200000E-01  1.400000E-01  1.600000E-01  1.800000E-01  2.000000E-01  2.200000E-01  2.400000E-01 
 2.600000E-01  2.800000E-01  3.000000E-01  3.200000E-01  3.400000E-01  3.600000E-01  3.800000E-01  4.000000E-01  4.200000E-01  4.400000E-01 
 4.600000E-01  4.800000E-01  5.000000E-01  5.200000E-01  5.400000E-01  5.600000E-01  5.800000E-01  6.000000E-01  6.200000E-01  6.400000E-01 
 6.600000E-01  6.800000E-01  7.000000E-01  7.200000E-01  7.400000E-01  7.600000E-01  7.800000E-01  8.000000E-01  8.200000E-01  8.400000E-01 
 8.600000E-01  8.800000E-01  9.000000E-01  9.200000E-01  9.400000E-01  9.600000E-01  9.800000E-01  1.000000E+00  0.000000E+00  2.000000E-02 
 4.000000E-02  6.000000E-02  8.000000E-02  1.000000E-01  1.200000E-01  1.400000E-01  1.600000E-01  1.800000E-01  2.000000E-01  2.200000E-01 
 2.400000E-01  2.600000E-01  2.800000E-01  3.000000E-01  3.200000E-01  3.400000E-01  3.600000E-01  3.800000E-01  4.000000E-01  4.200000E-01 
 4.400000E-01  4.600000E-01  4.800000E-01  5.000000E-01  5.200000E-01  5.400000E-01  5.600000E-01  5.800000E-01  6.000000E-01  6.200000E-01 
 6.400000E-01  6.600000E-01  6.800000E-01  7.000000E-01  7.200000E-01  7.400000E-01  7.600000E-01  7.800000E-01  8.000000E-01  8.200000E-01 
 8.400000E-01  8.600000E-01  8.800000E-01  9.000000E-01  9.200000E-01  9.400000E-01  9.600000E-01  9.800000E-01  1.000000E+00  0.000000E+00 
 2.000000E-02  4.000000E-02  6.000000E-02  8.000000E-02  1.000000E-01  1.200000E-01  1.400000E-01  1.600000E-01  1.800000E-01  2.000000E-01 
 2.200000E-01  2.400000E-01  2.600000E-01  2.800000E-01  3.000000E-01  3.200000E-01  3.400000E-01  3.600000E-01  3.800000E-01  4.000000E-01 
 4.200000E-01  4.400000E-01  4.600000E-01  4.800000E-01  5.000000E-01  5.200000E-01  5.400000E-01  5.600000E-01  5.800000E-01  6.000000E-01 
 6.200000E-01  6.400000E-01  6.600000E-01  6.800000E-01  7.000000E-01  7.200000E-01  7.400000E-01  7.600000E-01  7.800000E-01  8.000000E-01 
 8.200000E-01  8.400000E-01  8.600000E-01  8.800000E-01  9.000000E-01  9.200000E-01  9.400000E-01  9.600000E-01  9.800000E-01  1.000000E+00 
 0.000000E+00  2.000000E-02  4.000000E-02  6.000000E-02  8.000000E-02  1.000000E-01  1.200000E-01  1.400000E-01  1.600000E-01  1.800000E-01 
 2.000000E-01  2.200000E-01  2.400000E-01  2.600000E-01  2.800000E-01  3.000000E-01  3.200000E-01  3.400000E-01  3.600000E-01  3.800000E-01 
 4.000000E-01  4.200000E-01  4.400000E-01  4.600000E-01  4.800000E-01  5.000000E-01  5.200000E-01  5.400000E-01  5.600000E-01  5.800000E-01 
 6.000000E-01  6.200000E-01  6.400000E-01  6.600000E-01  6.800000E-01  7.000000E-01  7.200000E-01  7.400000E-01  7.600000E-01  7.800000E-01 
 8.000000E-01  8.200000E-01  8.400000E-01  8.600000E-01  8.800000E-01  9.000000E-01  9.200000E-01  9.400000E-01  9.600000E-01  9.800000E-01 
 1.000000E+00  0.000000E+00  2.000000E-02  4.000000E-02  6.000000E-02  8.000000E-02  1.000000E-01  1.200000E-01  1.400000E-01  1.600000E-01 
 1.800000E-01  2.000000E-01  2.200000E-01  2.400000E-01  2.600000E-01  2.800000E-01  3.000000E-01  3.200000E-01  3.400000E-01  3.600000E-01 
 3.800000E-01  4.000000E-01  4.200000E-01  4.400000E-01  4.600000E-01  4.800000E-01  5.000000E-01  5.200000E-01  5.400000E-01  5.600000E-01 
 5.800000E-01  6.000000E-01  6.200000E-01  6.400000E-01  6.600000E-01  6.800000E-01  7.000000E-01  7.200000E-01  7.400000E-01  7.600000E-01 
 7.800000E-01  8.000000E-01  8.200000E-01  8.400000E-01  8.600000E-01  8.800000E-01  9.000000E-01  9.200000E-01  9.400000E-01  9.600000E-01 
 9.800000E-01  1.000000E+00  0.000000E+00  2.000000E-02  4.000000E-02  6.000000E-02  8.000000E-02  1.000000E-01  1.200000E-01  1.400000E-01 
 1.600000E-01  1.800000E-01  2.000000E-01  2.200000E-01  2.400000E-01  2.600000E-01  2.800000E-01  3.000000E-01  3.200000E-01  3.400000E-01 
 3.600000E-01  3.800000E-01  4.000000E-01  4.200000E-01  4.400000E-01  4.600000E-01  4.800000E-01  5.000000E-01  5.200000E-01  5.400000E-01 
 5.600000E-01  5.800000E-01  6.000000E-01  6.200000E-01  6.400000E-01  6.600000E-01  6.800000E-01  7.000000E-01  7.200000E-01  7.400000E-01 
 7.600000E-01  7.800000E-01  8.000000E-01  8.200000E-01  8.400000E-01  8.600000E-01  8.800000E-01  9.000000E-01  9.200000E-01  9.400000E-01 
 9.600000E-01  9.800000E-01  1.000000E+00  0.000000E+00  2.000000E-02  4.000000E-02  6.000000E-02  8.000000E-02  1.000000E-01  1.200000E-01 
 1.400000E-01  1.600000E-01  1.800000E-01  2.000000E-01  2.200000E-01  2.400000E-01  2.600000E-01  2.800000E-01  3.000000E-01  3.200000E-01 
 3.400000E-01  3.600000E-01  3.800000E-01  4.000000E-01  4.200000E-01  4.400000E-01  4.600000E-01  4.800000E-01  5.000000E-01  5.200000E-01 
 5.400000E-01  5.600000E-01  5.800000E-01  6.000000E-01  6.200000E-01  6.400000E-01  6.600000E-01  6.800000E-01  7.000000E-01  7.200000E-01 
 7.400000E-01  7.600000E-01  7.800000E-01  8.000000E-01  8.200000E-01  8.400000E-01  8.600000E-01  8.800000E-01  9.000000E-01  9.200000E-01 
 9.400000E-01  9.600000E-01  9.800000E-01  1.000000E+00  0.000000E+00  2.000000E-02  4.000000E-02  6.000000E-02  8.000000E-02  1.000000E-01 
 1.200000E-01  1.400000E-01  1.600000E-01  1.800000E-01  2.000000E-01  2.200000E-01  2.400000E-01  2.600000E-01  2.800000E-01  3.000000E-01 
 3.200000E-01  3.400000E-01  3.600000E-01  3.800000E-01  4.000000E-01  4.200000E-01  4.400000E-01  4.600000E-01  4.800000E-01  5.000000E-01 
 5.200000E-01  5.400000E-01  5.600000E-01  5.800000E-01  6.000000E-01  6.200000E-01  6.400000E-01  6.600000E-01  6.800000E-01  7.000000E-01 
 7.200000E-01  7.400000E-01  7.600000E-01  7.800000E-01  8.000000E-01  8.200000E-01  8.400000E-01  8.600000E-01  8.800000E-01  9.000000E-01 
 9.200000E-01  9.400000E-01  9.600000E-01  9.800000E-01  1.000000E+00  0.000000E+00  2.000000E-02  4.000000E-02  6.000000E-02  8.000000E-02 
 1.000000E-01  1.200000E-01  1.400000E-01  1.600000E-01  1.800000E-01  2.000000E-01  2.200000E-01  2.400000E-01  2.600000E-01  2.800000E-01 
 3.000000E-01  3.200000E-01  3.400000E-01  3.600000E-01  3.800000E-01  4.000000E-01  4.200000E-01  4.400000E-01  4.600000E-01  4.800000E-01 
 5.000000E-01  5.200000E-01  5.400000E-01  5.600000E-01  5.800000E-01  6.000000E-01  6.200000E-01  6.400000E-01  6.600000E-01  6.800000E-01 
 7.000000E-01  7.200000E-01  7.400000E-01  7.600000E-01  7.800000E-01  8.000000E-01  8.200000E-01  8.400000E-01  8.600000E-01  8.800000E-01 
 9.000000E-01  9.200000E-01  9.400000E-01  9.600000E-01  9.800000E-01  1.000000E+00  0.000000E+00  2.000000E-02  4.000000E-02  6.000000E-02 
 8.000000E-02  1.000000E-01  1.200000E-01  1.400000E-01  1.600000E-01  1.800000E-01  2.000000E-01  2.200000E-01  2.400000E-01  2.600000E-01 
 2.800000E-01  3.000000E-01  3.200000E-01  3.400000E-01  3.600000E-01  3.800000E-01  4.000000E-01  4.200000E-01  4.400000E-01  4.600000E-01 
 4.800000E-01  5.000000E-01  5.200000E-01  5.400000E-01  5.600000E-01  5.800000E-01  6.000000E-01  6.200000E-01  6.400000E-01  6.600000E-01 
 6.800000E-01  7.000000E-01  7.200000E-01  7.400000E-01  7.600000E-01  7.800000E-01  8.000000E-01  8.200000E-01  8.400000E-01  8.600000E-01 
 8.800000E-01  9.000000E-01  9.200000E-01  9.400000E-01  9.600000E-01  9.800000E-01  1.000000E+00  0.000000E+00  2.000000E-02  4.000000E-02 
 6.000000E-02  8.000000E-02  1.000000E-01  1.200000E-01  1.400000E-01  1.600000E-01  1.800000E-01  2.000000E-01  2.200000E-01  2.400000E-01 
 2.600000E-01  2.800000E-01  3.000000E-01  3.200000E-01  3.400000E-01  3.600000E-01  3.800000E-01  4.000000E-01  4.200000E-01  4.400000E-01 
 4.600000E-01  4.800000E-01  5.000000E-01  5.200000E-01  5.400000E-01  5.600000E-01  5.800000E-01  6.000000E-01  6.200000E-01  6.400000E-01 
 6.600000E-01  6.800000E-01  7.000000E-01  7.200000E-01  7.400000E-01  7.600000E-01  7.800000E-01  8.000000E-01  8.200000E-01  8.400000E-01 
 8.600000E-01  8.800000E-01  9.000000E-01  9.200000E-01  9.400000E-01  9.600000E-01  9.800000E-01  1.000000E+00  0.000000E+00  2.000000E-02 
 4.000000E-02  6.000000E-02  8.000000E-02  1.000000E-01  1.200000E-01  1.400000E-01  1.600000E-01  1.800000E-01  2.000000E-01  2.200000E-01 
 2.400000E-01  2.600000E-01  2.800000E-01  3.000000E-01  3.200000E-01  3.400000E-01  3.600000E-01  3.800000E-01  4.000000E-01  4.200000E-01 
 4.400000E-01  4.600000E-01  4.800000E-01  5.000000E-01  5.200000E-01  5.400000E-01  5.600000E-01  5.800000E-01  6.000000E-01  6.200000E-01 
 6.400000E-01  6.600000E-01  6.800000E-01  7.000000E-01  7.200000E-01  7.400000E-01  7.600000E-01  7.800000E-01  8.000000E-01  8.200000E-01 
 8.400000E-01  8.600000E-01  8.800000E-01  9.000000E-01  9.200000E-01  9.400000E-01  9.600000E-01  9.800000E-01  1.000000E+00  0.000000E+00 
 2.000000E-02  4.000000E-02  6.000000E-02  8.000000E-02  1.000000E-01  1.200000E-01  1.400000E-01  1.600000E-01  1.800000E-01  2.000000E-01 
 2.200000E-01  2.400000E-01  2.600000E-01  2.800000E-01  3.000000E-01  3.200000E-01  3.400000E-01  3.600000E-01  3.800000E-01  4.000000E-01 
 4.200000E-01  4.400000E-01  4.600000E-01  4.800000E-01  5.000000E-01  5.200000E-01  5.400000E-01  5.600000E-01  5.800000E-01  6.000000E-01 
 6.200000E-01  6.400000E-01  6.600000E-01  6.800000E-01  7.000000E-01  7.200000E-01  7.400000E-01  7.600000E-01  7.800000E-01  8.000000E-01 
 8.200000E-01  8.400000E-01  8.600000E-01  8.800000E-01  9.000000E-01  9.200000E-01  9.400000E-01  9.600000E-01  9.800000E-01  1.000000E+00 
 0.000000E+00  2.000000E-02  4.000000E-02  6.000000E-02  8.000000E-02  1.000000E-01  1.200000E-01  1.400000E-01  1.600000E-01  1.800000E-01 
 2.000000E-01  2.200000E-01  2.400000E-01  2.600000E-01  2.800000E-01  3.000000E-01  3.200000E-01  3.400000E-01  3.600000E-01  3.800000E-01 
 4.000000E-01  4.200000E-01  4.400000E-01  4.600000E-01  4.800000E-01  5.000000E-01  5.200000E-01  5.400000E-01  5.600000E-01  5.800000E-01 
 6.000000E-01  6.200000E-01  6.400000E-01  6.600000E-01  6.800000E-01  7.000000E-01  7.200000E-01  7.400000E-01  7.600000E-01  7.800000E-01 
 8.000000E-01  8.200000E-01  8.400000E-01  8.600000E-01  8.800000E-01  9.000000E-01  9.200000E-01  9.400000E-01  9.600000E-01  9.800000E-01 
 1.000000E+00  0.000000E+00  2.000000E-02  4.000000E-02  6.000000E-02  8.000000E-02  1.000000E-01  1.200000E-01  1.400000E-01  1.600000E-01 
 1.800000E-01  2.000000E-01  2.200000E-01  2.400000E-01  2.600000E-01  2.800000E-01  3.000000E-01  3.200000E-01  3.400000E-01  3.600000E-01 
 3.800000E-01  4.000000E-01  4.200000E-01  4.400000E-01  4.600000E-01  4.800000E-01  5.000000E-01  5.200000E-01  5.400000E-01  5.600000E-01 
 5.800000E-01  6.000000E-01  6.200000E-01  6.400000E-01  6.600000E-01  6.800000E-01  7.000000E-01  7.200000E-01  7.400000E-01  7.600000E-01 
 7.800000E-01  8.000000E-01  8.200000E-01  8.400000E-01  8.600000E-01  8.800000E-01  9.000000E-01  9.200000E-01  9.400000E-01  9.600000E-01 
 9.800000E-01  1.000000E+00  0.000000E+00  2.000000E-02  4.000000E-02  6.000000E-02  8.000000E-02  1.000000E-01  1.200000E-01  1.400000E-01 
 1.600000E-01  1.800000E-01  2.000000E-01  2.200000E-01  2.400000E-01  2.600000E-01  2.800000E-01  3.000000E-01  3.200000E-01  3.400000E-01 
 3.600000E-01  3.800000E-01  4.000000E-01  4.200000E-01  4.400000E-01  4.600000E-01  4.800000E-01  5.000000E-01  5.200000E-01  5.400000E-01 
 5.600000E-01  5.800000E-01  6.000000E-01  6.200000E-01  6.400000E-01  6.600000E-01  6.800000E-01  7.000000E-01  7.200000E-01  7.400000E-01 
 7.600000E-01  7.800000E-01  8.000000E-01  8.200000E-01  8.400000E-01  8.600000E-01  8.800000E-01  9.000000E-01  9.200000E-01  9.400000E-01 
 9.600000E-01  9.800000E-01  1.000000E+00  0.000000E+00  2.000000E-02  4.000000E-02  6.000000E-02  8.000000E-02  1.000000E-01  1.200000E-01 
 1.400000E-01  1.600000E-01  1.800000E-01  2.000000E-01  2.200000E-01  2.400000E-01  2.600000E-01  2.800000E-01  3.000000E-01  3.200000E-01 
 3.400000E-01  3.600000E-01  3.800000E-01  4.000000E-01  4.200000E-01  4.400000E-01  4.600000E-01  4.800000E-01  5.000000E-01  5.200000E-01 
 5.400000E-01  5.600000E-01  5.800000E-01  6.000000E-01  6.200000E-01  6.400000E-01  6.600000E-01  6.800000E-01  7.000000E-01  7.200000E-01 
 7.400000E-01  7.600000E-01  7.800000E-01  8.000000E-01  8.200000E-01  8.400000E-01  8.600000E-01  8.800000E-01  9.000000E-01  9.200000E-01 
 9.400000E-01  9.600000E-01  9.800000E-01  1.000000E+00  0.000000E+00  2.000000E-02  4.000000E-02  6.000000E-02  8.000000E-02  1.000000E-01 
 1.200000E-01  1.400000E-01  1.600000E-01  1.800000E-01  2.000000E-01  2.200000E-01  2.400000E-01  2.600000E-01  2.800000E-01  3.000000E-01 
 3.200000E-01  3.400000E-01  3.600000E-01  3.800000E-01  4.000000E-01  4.200000E-01  4.400000E-01  4.600000E-01  4.800000E-01  5.000000E-01 
 5.200000E-01  5.400000E-01  5.600000E-01  5.800000E-01  6.000000E-01  6.200000E-01  6.400000E-01  6.600000E-01  6.800000E-01  7.000000E-01 
 7.200000E-01  7.400000E-01  7.600000E-01  7.800000E-01  8.000000E-01  8.200000E-01  8.400000E-01  8.600000E-01  8.800000E-01  9.000000E-01 
 9.200000E-01  9.400000E-01  9.600000E-01  9.800000E-01  1.000000E+00  0.000000E+00  2.000000E-02  4.000000E-02  6.000000E-02  8.000000E-02 
 1.000000E-01  1.200000E-01  1.400000E-01  1.600000E-01  1.800000E-01  2.000000E-01  2.200000E-01  2.400000E-01  2.600000E-01  2.800000E-01 
 3.000000E-01  3.200000E-01  3.400000E-01  3.600000E-01  3.800000E-01  4.000000E-01  4.200000E-01  4.400000E-01  4.600000E-01  4.800000E-01 
 5.000000E-01  5.200000E-01  5.400000E-01  5.600000E-01  5.800000E-01  6.000000E-01  6.200000E-01  6.400000E-01  6.600000E-01  6.800000E-01 
 7.000000E-01  7.200000E-01  7.400000E-01  7.600000E-01  7.800000E-01  8.000000E-01  8.200000E-01  8.400000E-01  8.600000E-01  8.800000E-01 
 9.000000E-01  9.200000E-01  9.400000E-01  9.600000E-01  9.800000E-01  1.000000E+00  0.000000E+00  2.000000E-02  4.000000E-02  6.000000E-02 
 8.000000E-02  1.000000E-01  1.200000E-01  1.400000E-01  1.600000E-01  1.800000E-01  2.000000E-01  2.200000E-01  2.400000E-01  2.600000E-01 
 2.800000E-01  3.000000E-01  3.200000E-01  3.400000E-01  3.600000E-01  3.800000E-01  4.000000E-01  4.200000E-01  4.400000E-01  4.600000E-01 
 4.800000E-01  5.000000E-01  5.200000E-01  5.400000E-01  5.600000E-01  5.800000E-01  6.000000E-01  6.200000E-01  6.400000E-01  6.600000E-01 
 6.800000E-01  7.000000E-01  7.200000E-01  7.400000E-01  7.600000E-01  7.800000E-01  8.000000E-01  8.200000E-01  8.400000E-01  8.600000E-01 
 8.800000E-01  9.000000E-01  9.200000E-01  9.400000E-01  9.600000E-01  9.800000E-01  1.000000E+00  0.000000E+00  2.000000E-02  4.000000E-02 
 6.000000E-02  8.000000E-02  1.000000E-01  1.200000E-01  1.400000E-01  1.600000E-01  1.800000E-01  2.000000E-01  2.200000E-01  2.400000E-01 
 2.600000E-01  2.800000E-01  3.000000E-01  3.200000E-01  3.400000E-01  3.600000E-01  3.800000E-01  4.000000E-01  4.200000E-01  4.400000E-01 
 4.600000E-01  4.800000E-01  5.000000E-01  5.200000E-01  5.400000E-01  5.600000E-01  5.800000E-01  6.000000E-01  6.200000E-01  6.400000E-01 
 6.600000E-01  6.800000E-01  7.000000E-01  7.200000E-01  7.400000E-01  7.600000E-01  7.800000E-01  8.000000E-01  8.200000E-01  8.400000E-01 
 8.600000E-01  8.800000E-01  9.000000E-01  9.200000E-01  9.400000E-01  9.600000E-01  9.800000E-01  1.000000E+00  0.000000E+00  2.000000E-02 
 4.000000E-02  6.000000E-02  8.000000E-02  1.000000E-01  1.200000E-01  1.400000E-01  1.600000E-01  1.800000E-01  2.000000E-01  2.200000E-01 
 2.400000E-01  2.600000E-01  2.800000E-01  3.000000E-01  3.200000E-01  3.400000E-01  3.600000E-01  3.800000E-01  4.000000E-01  4.200000E-01 
 4.400000E-01  4.600000E-01  4.800000E-01  5.000000E-01  5.200000E-01  5.400000E-01  5.600000E-01  5.800000E-01  6.000000E-01  6.200000E-01 
 6.400000E-01  6.600000E-01  6.800000E-01  7.000000E-01  7.200000E-01  7.400000E-01  7.600000E-01  7.800000E-01  8.000000E-01  8.200000E-01 
 8.400000E-01  8.600000E-01  8.800000E-01  9.000000E-01  9.200000E-01  9.400000E-01  9.600000E-01  9.800000E-01  1.000000E+00  0.000000E+00 
 2.000000E-02  4.000000E-02  6.000000E-02  8.000000E-02  1.000000E-01  1.200000E-01  1.400000E-01  1.600000E-01  1.800000E-01  2.000000E-01 
 2.200000E-01  2.400000E-01  2.600000E-01  2.800000E-01  3.000000E-01  3.200000E-01  3.400000E-01  3.600000E-01  3.800000E-01  4.000000E-01 
 4.200000E-01  4.400000E-01  4.600000E-01  4.800000E-01  5.000000E-01  5.200000E-01  5.400000E-01  5.600000E-01  5.800000E-01  6.000000E-01 
 6.200000E-01  6.400000E-01  6.600000E-01  6.800000E-01  7.000000E-01  7.200000E-01  7.400000E-01  7.600000E-01  7.800000E-01  8.000000E-01 
 8.200000E-01  8.400000E-01  8.600000E-01  8.800000E-01  9.000000E-01  9.200000E-01  9.400000E-01  9.600000E-01  9.800000E-01  1.000000E+00 
 0.000000E+00  2.000000E-02  4.000000E-02  6.000000E-02  8.000000E-02  1.000000E-01  1.200000E-01  1.400000E-01  1.600000E-01  1.800000E-01 
 2.000000E-01  2.200000E-01  2.400000E-01  2.600000E-01  2.800000E-01  3.000000E-01  3.200000E-01  3.400000E-01  3.600000E-01  3.800000E-01 
 4.000000E-01  4.200000E-01  4.400000E-01  4.600000E-01  4.800000E-01  5.000000E-01  5.200000E-01  5.400000E-01  5.600000E-01  5.800000E-01 
 6.000000E-01  6.200000E-01  6.400000E-01  6.600000E-01  6.800000E-01  7.000000E-01  7.200000E-01  7.400000E-01  7.600000E-01  7.800000E-01 
 8.000000E-01  8.200000E-01  8.400000E-01  8.600000E-01  8.800000E-01  9.000000E-01  9.200000E-01  9.400000E-01  9.600000E-01  9.800000E-01 
 1.000000E+00  0.000000E+00  2.000000E-02  4.000000E-02  6.000000E-02  8.000000E-02  1.000000E-01  1.200000E-01  1.400000E-01  1.600000E-01 
 1.800000E-01  2.000000E-01  2.200000E-01  2.400000E-01  2.600000E-01  2.800000E-01  3.000000E-01  3.200000E-01  3.400000E-01  3.600000E-01 
 3.800000E-01  4.000000E-01  4.200000E-01  4.400000E-01  4.600000E-01  4.800000E-01  5.000000E-01  5.200000E-01  5.400000E-01  5.600000E-01 
 5.800000E-01  6.000000E-01  6.200000E-01  6.400000E-01  6.600000E-01  6.800000E-01  7.000000E-01  7.200000E-01  7.400000E-01  7.600000E-01 
 7.800000E-01  8.000000E-01  8.200000E-01  8.400000E-01  8.600000E-01  8.800000E-01  9.000000E-01  9.200000E-01  9.400000E-01  9.600000E-01 
 9.800000E-01  1.000000E+00  0.000000E+00  2.000000E-02  4.000000E-02  6.000000E-02  8.000000E-02  1.000000E-01  1.200000E-01  1.400000E-01 
 1.600000E-01  1.800000E-01  2.000000E-01  2.200000E-01  2.400000E-01  2.600000E-01  2.800000E-01  3.000000E-01  3.200000E-01  3.400000E-01 
 3.600000E-01  3.800000E-01  4.000000E-01  4.200000E-01  4.400000E-01  4.600000E-01  4.800000E-01  5.000000E-01  5.200000E-01  5.400000E-01 
 5.600000E-01  5.800000E-01  6.000000E-01  6.200000E-01  6.400000E-01  6.600000E-01  6.800000E-01  7.000000E-01  7.200000E-01  7.400000E-01 
 7.600000E-01  7.800000E-01  8.000000E-01  8.200000E-01  8.400000E-01  8.600000E-01  8.800000E-01  9.000000E-01  9.200000E-01  9.400000E-01 
 9.600000E-01  9.800000E-01  1.000000E+00  0.000000E+00  2.000000E-02  4.000000E-02  6.000000E-02  8.000000E-02  1.000000E-01  1.200000E-01 
 1.400000E-01  1.600000E-01  1.800000E-01  2.000000E-01  2.200000E-01  2.400000E-01  2.600000E-01  2.800000E-01  3.000000E-01  3.200000E-01 
 3.400000E-01  3.600000E-01  3.800000E-01  4.000000E-01  4.200000E-01  4.400000E-01  4.600000E-01  4.800000E-01  5.000000E-01  5.200000E-01 
 5.400000E-01  5.600000E-01  5.800000E-01  6.000000E-01  6.200000E-01  6.400000E-01  6.600000E-01  6.800000E-01  7.000000E-01  7.200000E-01 
 7.400000E-01  7.600000E-01  7.800000E-01  8.000000E-01  8.200000E-01  8.400000E-01  8.600000E-01  8.800000E-01  9.000000E-01  9.200000E-01 
 9.400000E-01  9.600000E-01  9.800000E-01  1.000000E+00  0.000000E+00  2.000000E-02  4.000000E-02  6.000000E-02  8.000000E-02  1.000000E-01 
 1.200000E-01  1.400000E-01  1.600000E-01  1.800000E-01  2.000000E-01  2.200000E-01  2.400000E-01  2.600000E-01  2.800000E-01  3.000000E-01 
 3.200000E-01  3.400000E-01  3.600000E-01  3.800000E-01  4.000000E-01  4.200000E-01  4.400000E-01  4.600000E-01  4.800000E-01  5.000000E-01 
 5.200000E-01  5.400000E-01  5.600000E-01  5.800000E-01  6.000000E-01  6.200000E-01  6.400000E-01  6.600000E-01  6.800000E-01  7.000000E-01 
 7.200000E-01  7.400000E-01  7.600000E-01  7.800000E-01  8.000000E-01  8.200000E-01  8.400000E-01  8.600000E-01  8.800000E-01  9.000000E-01 
 9.200000E-01  9.400000E-01  9.600000E-01  9.800000E-01  1.000000E+00  0.000000E+00  2.000000E-02  4.000000E-02  6.000000E-02  8.000000E-02 
 1.000000E-01  1.200000E-01  1.400000E-01  1.600000E-01  1.800000E-01  2.000000E-01  2.200000E-01  2.400000E-01  2.600000E-01  2.800000E-01 
 3.000000E-01  3.200000E-01  3.400000E-01  3.600000E-01  3.800000E-01  4.000000E-01  4.200000E-01  4.400000E-01  4.600000E-01  4.800000E-01 
 5.000000E-01  5.200000E-01  5.400000E-01  5.600000E-01  5.800000E-01  6.000000E-01  6.200000E-01  6.400000E-01  6.600000E-01  6.800000E-01 
 7.000000E-01  7.200000E-01  7.400000E-01  7.600000E-01  7.800000E-01  8.000000E-01  8.200000E-01  8.400000E-01  8.600000E-01  8.800000E-01 
 9.000000E-01  9.200000E-01  9.400000E-01  9.600000E-01  9.800000E-01  1.000000E+00  0.000000E+00  2.000000E-02  4.000000E-02  6.000000E-02 
 8.000000E-02  1.000000E-01  1.200000E-01  1.400000E-01  1.600000E-01  1.800000E-01  2.000000E-01  2.200000E-01  2.400000E-01  2.600000E-01 
 2.800000E-01  3.000000E-01  3.200000E-01  3.400000E-01  3.600000E-01  3.800000E-01  4.000000E-01  4.200000E-01  4.400000E-01  4.600000E-01 
 4.800000E-01  5.000000E-01  5.200000E-01  5.400000E-01  5.600000E-01  5.800000E-01  6.000000E-01  6.200000E-01  6.400000E-01  6.600000E-01 
 6.800000E-01  7.000000E-01  7.200000E-01  7.400000E-01  7.600000E-01  7.800000E-01  8.000000E-01  8.200000E-01  8.400000E-01  8.600000E-01 
 8.800000E-01  9.000000E-01  9.200000E-01  9.400000E-01  9.600000E-01  9.800000E-01  1.000000E+00  0.000000E+00  2.000000E-02  4.000000E-02 
 6.000000E-02  8.000000E-02  1.000000E-01  1.200000E-01  1.400000E-01  1.600000E-01  1.800000E-01  2.000000E-01  2.200000E-01  2.400000E-01 
 2.600000E-01  2.800000E-01  3.000000E-01  3.200000E-01  3.400000E-01  3.600000E-01  3.800000E-01  4.000000E-01  4.200000E-01  4.400000E-01 
 4.600000E-01  4.800000E-01  5.000000E-01  5.200000E-01  5.400000E-01  5.600000E-01  5.800000E-01  6.000000E-01  6.200000E-01  6.400000E-01 
 6.600000E-01  6.800000E-01  7.000000E-01  7.200000E-01  7.400000E-01  7.600000E-01  7.800000E-01  8.000000E-01  8.200000E-01  8.400000E-01 
 8.600000E-01  8.800000E-01  9.000000E-01  9.200000E-01  9.400000E-01  9.600000E-01  9.800000E-01  1.000000E+00  0.000000E+00  2.000000E-02 
 4.000000E-02  6.000000E-02  8.000000E-02  1.000000E-01  1.200000E-01  1.400000E-01  1.600000E-01  1.800000E-01  2.000000E-01  2.200000E-01 
 2.400000E-01  2.600000E-01  2.800000E-01  3.000000E-01  3.200000E-01  3.400000E-01  3.600000E-01  3.800000E-01  4.000000E-01  4.200000E-01 
 4.400000E-01  4.600000E-01  4.800000E-01  5.000000E-01  5.200000E-01  5.400000E-01  5.600000E-01  5.800000E-01  6.000000E-01  6.200000E-01 
 6.400000E-01  6.600000E-01  6.800000E-01  7.000000E-01  7.200000E-01  7.400000E-01  7.600000E-01  7.800000E-01  8.000000E-01  8.200000E-01 
 8.400000E-01  8.600000E-01  8.800000E-01  9.000000E-01  9.200000E-01  9.400000E-01  9.600000E-01  9.800000E-01  1.000000E+00  0.000000E+00 
 2.000000E-02  4.000000E-02  6.000000E-02  8.000000E-02  1.000000E-01  1.200000E-01  1.400000E-01  1.600000E-01  1.800000E-01  2.000000E-01 
 2.200000E-01  2.400000E-01  2.600000E-01  2.800000E-01  3.000000E-01  3.200000E-01  3.400000E-01  3.600000E-01  3.800000E-01  4.000000E-01 
 4.200000E-01  4.400000E-01  4.600000E-01  4.800000E-01  5.000000E-01  5.200000E-01  5.400000E-01  5.600000E-01  5.800000E-01  6.000000E-01 
 6.200000E-01  6.400000E-01  6.600000E-01  6.800000E-01  7.000000E-01  7.200000E-01  7.400000E-01  7.600000E-01  7.800000E-01  8.000000E-01 
 8.200000E-01  8.400000E-01  8.600000E-01  8.800000E-01  9.000000E-01  9.200000E-01  9.400000E-01  9.600000E-01  9.800000E-01  1.000000E+00 
 0.000000E+00  2.000000E-02  4.000000E-02  6.000000E-02  8.000000E-02  1.000000E-01  1.200000E-01  1.400000E-01  1.600000E-01  1.800000E-01 
 2.000000E-01  2.200000E-01  2.400000E-01  2.600000E-01  2.800000E-01  3.000000E-01  3.200000E-01  3.400000E-01  3.600000E-01  3.800000E-01 
 4.000000E-01  4.200000E-01  4.400000E-01  4.600000E-01  4.800000E-01  5.000000E-01  5.200000E-01  5.400000E-01  5.600000E-01  5.800000E-01 
 6.000000E-01  6.200000E-01  6.400000E-01  6.600000E-01  6.800000E-01  7.000000E-01  7.200000E-01  7.400000E-01  7.600000E-01  7.800000E-01 
 8.000000E-01  8.200000E-01  8.400000E-01  8.600000E-01  8.800000E-01  9.000000E-01  9.200000E-01  9.400000E-01  9.600000E-01  9.800000E-01 
 1.000000E+00  0.000000E+00  2.000000E-02  4.000000E-02  6.000000E-02  8.000000E-02  1.000000E-01  1.200000E-01  1.400000E-01  1.600000E-01 