TITLE = "  1.20000E+02 [h]"
VARIABLES="X [m]","Y [m]","Z [m]","qlx [m/h]","qly [m/h]","qlz [m/h]","qgx [m/h]","qgy [m/h]","qgz [m/h]","Material_ID"
ZONE T="1.20000E+02", STRANDID=1, SOLUTIONTIME=1.20000E+02, N=6642, E=3200, ZONETYPE=FEBRICK, VARLOCATION=([4-10]=CELLCENTERED), DATAPACKING=BLOCK
# vertex x-coordinate
 0.000000E+00  2.462019E-02  4.924039E-02  7.386058E-02  9.848078E-02  1.231010E-01  1.477212E-01  1.723414E-01  1.969616E-01  2.215817E-01
 2.462019E-01  2.708221E-01  2.954423E-01  3.200625E-01  3.446827E-01  3.693029E-01  3.939231E-01  4.185433E-01  4.431635E-01  4.677837E-01
 4.924039E-01  5.170241E-01  5.416443E-01  5.662645E-01  5.908847E-01  6.155048E-01  6.401250E-01  6.647452E-01  6.893654E-01  7.139856E-01
 7.386058E-01  7.632260E-01  7.878462E-01  8.124664E-01  8.370866E-01  8.617068E-01  8.863270E-01  9.109472E-01  9.355674E-01  9.601876E-01
 9.848078E-01  1.009428E+00  1.034048E+00  1.058668E+00  1.083289E+00  1.107909E+00  1.132529E+00  1.157149E+00  1.181769E+00  1.206389E+00
 1.231010E+00  1.255630E+00  1.280250E+00  1.304870E+00  1.329490E+00  1.354111E+00  1.378731E+00  1.403351E+00  1.427971E+00  1.452591E+00
 1.477212E+00  1.501832E+00  1.526452E+00  1.551072E+00  1.575692E+00  1.600313E+00  1.624933E+00  1.649553E+00  1.674173E+00  1.698793E+00
 1.723414E+00  1.748034E+00  1.772654E+00  1.797274E+00  1.821894E+00  1.846515E+00  1.871135E+00  1.895755E+00  1.920375E+00  1.944995E+00
 1.969616E+00  0.000000E+00  2.462019E-02  4.924039E-02  7.386058E-02  9.848078E-02  1.231010E-01  1.477212E-01  1.723414E-01  1.969616E-01
 2.215817E-01  2.462019E-01  2.708221E-01  2.954423E-01  3.200625E-01  3.446827E-01  3.693029E-01  3.939231E-01  4.185433E-01  4.431635E-01
 4.677837E-01  4.924039E-01  5.170241E-01  5.416443E-01  5.662645E-01  5.908847E-01  6.155048E-01  6.401250E-01  6.647452E-01  6.893654E-01
 7.139856E-01  7.386058E-01  7.632260E-01  7.878462E-01  8.124664E-01  8.370866E-01  8.617068E-01  8.863270E-01  9.109472E-01  9.355674E-01
 9.601876E-01  9.848078E-01  1.009428E+00  1.034048E+00  1.058668E+00  1.083289E+00  1.107909E+00  1.132529E+00  1.157149E+00  1.181769E+00
 1.206389E+00  1.231010E+00  1.255630E+00  1.280250E+00  1.304870E+00  1.329490E+00  1.354111E+00  1.378731E+00  1.403351E+00  1.427971E+00
 1.452591E+00  1.477212E+00  1.501832E+00  1.526452E+00  1.551072E+00  1.575692E+00  1.600313E+00  1.624933E+00  1.649553E+00  1.674173E+00
 1.698793E+00  1.723414E+00  1.748034E+00  1.772654E+00  1.797274E+00  1.821894E+00  1.846515E+00  1.871135E+00  1.895755E+00  1.920375E+00
 1.944995E+00  1.969616E+00  4.341204E-03  2.896140E-02  5.358159E-02  7.820179E-02  1.028220E-01  1.274422E-01  1.520624E-01  1.766826E-01
 2.013028E-01  2.259229E-01  2.505431E-01  2.751633E-01  2.997835E-01  3.244037E-01  3.490239E-01  3.736441E-01  3.982643E-01  4.228845E-01
 4.475047E-01  4.721249E-01  4.967451E-01  5.213653E-01  5.459855E-01  5.706057E-01  5.952259E-01  6.198461E-01  6.444662E-01  6.690864E-01
 6.937066E-01  7.183268E-01  7.429470E-01  7.675672E-01  7.921874E-01  8.168076E-01  8.414278E-01  8.660480E-01  8.906682E-01  9.152884E-01
 9.399086E-01  9.645288E-01  9.891490E-01  1.013769E+00  1.038389E+00  1.063010E+00  1.087630E+00  1.112250E+00  1.136870E+00  1.161490E+00
 1.186111E+00  1.210731E+00  1.235351E+00  1.259971E+00  1.284591E+00  1.309211E+00  1.333832E+00  1.358452E+00  1.383072E+00  1.407692E+00
 1.432312E+00  1.456933E+00  1.481553E+00  1.506173E+00  1.530793E+00  1.555413E+00  1.580034E+00  1.604654E+00  1.629274E+00  1.653894E+00
 1.678514E+00  1.703135E+00  1.727755E+00  1.752375E+00  1.776995E+00  1.801615E+00  1.826236E+00  1.850856E+00  1.875476E+00  1.900096E+00
 1.924716E+00  1.949337E+00  1.973957E+00  4.341204E-03  2.896140E-02  5.358159E-02  7.820179E-02  1.028220E-01  1.274422E-01  1.520624E-01
 1.766826E-01  2.013028E-01  2.259229E-01  2.505431E-01  2.751633E-01  2.997835E-01  3.244037E-01  3.490239E-01  3.736441E-01  3.982643E-01
 4.228845E-01  4.475047E-01  4.721249E-01  4.967451E-01  5.213653E-01  5.459855E-01  5.706057E-01  5.952259E-01  6.198461E-01  6.444662E-01
 6.690864E-01  6.937066E-01  7.183268E-01  7.429470E-01  7.675672E-01  7.921874E-01  8.168076E-01  8.414278E-01  8.660480E-01  8.906682E-01
 9.152884E-01  9.399086E-01  9.645288E-01  9.891490E-01  1.013769E+00  1.038389E+00  1.063010E+00  1.087630E+00  1.112250E+00  1.136870E+00
 1.161490E+00  1.186111E+00  1.210731E+00  1.235351E+00  1.259971E+00  1.284591E+00  1.309211E+00  1.333832E+00  1.358452E+00  1.383072E+00
 1.407692E+00  1.432312E+00  1.456933E+00  1.481553E+00  1.506173E+00  1.530793E+00  1.555413E+00  1.580034E+00  1.604654E+00  1.629274E+00
 1.653894E+00  1.678514E+00  1.703135E+00  1.727755E+00  1.752375E+00  1.776995E+00  1.801615E+00  1.826236E+00  1.850856E+00  1.875476E+00
 1.900096E+00  1.924716E+00  1.949337E+00  1.973957E+00  8.682409E-03  3.330260E-02  5.792280E-02  8.254299E-02  1.071632E-01  1.317834E-01
 1.564036E-01  1.810238E-01  2.056440E-01  2.302642E-01  2.548843E-01  2.795045E-01  3.041247E-01  3.287449E-01  3.533651E-01  3.779853E-01
 4.026055E-01  4.272257E-01  4.518459E-01  4.764661E-01  5.010863E-01  5.257065E-01  5.503267E-01  5.749469E-01  5.995671E-01  6.241873E-01
 6.488074E-01  6.734276E-01  6.980478E-01  7.226680E-01  7.472882E-01  7.719084E-01  7.965286E-01  8.211488E-01  8.457690E-01  8.703892E-01
 8.950094E-01  9.196296E-01  9.442498E-01  9.688700E-01  9.934902E-01  1.018110E+00  1.042731E+00  1.067351E+00  1.091971E+00  1.116591E+00
 1.141211E+00  1.165832E+00  1.190452E+00  1.215072E+00  1.239692E+00  1.264312E+00  1.288932E+00  1.313553E+00  1.338173E+00  1.362793E+00
 1.387413E+00  1.412033E+00  1.436654E+00  1.461274E+00  1.485894E+00  1.510514E+00  1.535134E+00  1.559755E+00  1.584375E+00  1.608995E+00
 1.633615E+00  1.658235E+00  1.682856E+00  1.707476E+00  1.732096E+00  1.756716E+00  1.781336E+00  1.805957E+00  1.830577E+00  1.855197E+00
 1.879817E+00  1.904437E+00  1.929058E+00  1.953678E+00  1.978298E+00  8.682409E-03  3.330260E-02  5.792280E-02  8.254299E-02  1.071632E-01
 1.317834E-01  1.564036E-01  1.810238E-01  2.056440E-01  2.302642E-01  2.548843E-01  2.795045E-01  3.041247E-01  3.287449E-01  3.533651E-01
 3.779853E-01  4.026055E-01  4.272257E-01  4.518459E-01  4.764661E-01  5.010863E-01  5.257065E-01  5.503267E-01  5.749469E-01  5.995671E-01
 6.241873E-01  6.488074E-01  6.734276E-01  6.980478E-01  7.226680E-01  7.472882E-01  7.719084E-01  7.965286E-01  8.211488E-01  8.457690E-01
 8.703892E-01  8.950094E-01  9.196296E-01  9.442498E-01  9.688700E-01  9.934902E-01  1.018110E+00  1.042731E+00  1.067351E+00  1.091971E+00
 1.116591E+00  1.141211E+00  1.165832E+00  1.190452E+00  1.215072E+00  1.239692E+00  1.264312E+00  1.288932E+00  1.313553E+00  1.338173E+00
 1.362793E+00  1.387413E+00  1.412033E+00  1.436654E+00  1.461274E+00  1.485894E+00  1.510514E+00  1.535134E+00  1.559755E+00  1.584375E+00
 1.608995E+00  1.633615E+00  1.658235E+00  1.682856E+00  1.707476E+00  1.732096E+00  1.756716E+00  1.781336E+00  1.805957E+00  1.830577E+00
 1.855197E+00  1.879817E+00  1.904437E+00  1.929058E+00  1.953678E+00  1.978298E+00  1.302361E-02  3.764381E-02  6.226400E-02  8.688419E-02
 1.115044E-01  1.361246E-01  1.607448E-01  1.853650E-01  2.099852E-01  2.346054E-01  2.592256E-01  2.838457E-01  3.084659E-01  3.330861E-01
 3.577063E-01  3.823265E-01  4.069467E-01  4.315669E-01  4.561871E-01  4.808073E-01  5.054275E-01  5.300477E-01  5.546679E-01  5.792881E-01
 6.039083E-01  6.285285E-01  6.531487E-01  6.777688E-01  7.023890E-01  7.270092E-01  7.516294E-01  7.762496E-01  8.008698E-01  8.254900E-01
 8.501102E-01  8.747304E-01  8.993506E-01  9.239708E-01  9.485910E-01  9.732112E-01  9.978314E-01  1.022452E+00  1.047072E+00  1.071692E+00
 1.096312E+00  1.120932E+00  1.145553E+00  1.170173E+00  1.194793E+00  1.219413E+00  1.244033E+00  1.268653E+00  1.293274E+00  1.317894E+00
 1.342514E+00  1.367134E+00  1.391754E+00  1.416375E+00  1.440995E+00  1.465615E+00  1.490235E+00  1.514855E+00  1.539476E+00  1.564096E+00
 1.588716E+00  1.613336E+00  1.637956E+00  1.662577E+00  1.687197E+00  1.711817E+00  1.736437E+00  1.761057E+00  1.785678E+00  1.810298E+00
 1.834918E+00  1.859538E+00  1.884158E+00  1.908779E+00  1.933399E+00  1.958019E+00  1.982639E+00  1.302361E-02  3.764381E-02  6.226400E-02
 8.688419E-02  1.115044E-01  1.361246E-01  1.607448E-01  1.853650E-01  2.099852E-01  2.346054E-01  2.592256E-01  2.838457E-01  3.084659E-01
 3.330861E-01  3.577063E-01  3.823265E-01  4.069467E-01  4.315669E-01  4.561871E-01  4.808073E-01  5.054275E-01  5.300477E-01  5.546679E-01
 5.792881E-01  6.039083E-01  6.285285E-01  6.531487E-01  6.777688E-01  7.023890E-01  7.270092E-01  7.516294E-01  7.762496E-01  8.008698E-01
 8.254900E-01  8.501102E-01  8.747304E-01  8.993506E-01  9.239708E-01  9.485910E-01  9.732112E-01  9.978314E-01  1.022452E+00  1.047072E+00
 1.071692E+00  1.096312E+00  1.120932E+00  1.145553E+00  1.170173E+00  1.194793E+00  1.219413E+00  1.244033E+00  1.268653E+00  1.293274E+00
 1.317894E+00  1.342514E+00  1.367134E+00  1.391754E+00  1.416375E+00  1.440995E+00  1.465615E+00  1.490235E+00  1.514855E+00  1.539476E+00
 1.564096E+00  1.588716E+00  1.613336E+00  1.637956E+00  1.662577E+00  1.687197E+00  1.711817E+00  1.736437E+00  1.761057E+00  1.785678E+00
 1.810298E+00  1.834918E+00  1.859538E+00  1.884158E+00  1.908779E+00  1.933399E+00  1.958019E+00  1.982639E+00  1.736482E-02  4.198501E-02
 6.660521E-02  9.122540E-02  1.158456E-01  1.404658E-01  1.650860E-01  1.897062E-01  2.143264E-01  2.389466E-01  2.635668E-01  2.881869E-01
 3.128071E-01  3.374273E-01  3.620475E-01  3.866677E-01  4.112879E-01  4.359081E-01  4.605283E-01  4.851485E-01  5.097687E-01  5.343889E-01
 5.590091E-01  5.836293E-01  6.082495E-01  6.328697E-01  6.574899E-01  6.821101E-01  7.067302E-01  7.313504E-01  7.559706E-01  7.805908E-01
 8.052110E-01  8.298312E-01  8.544514E-01  8.790716E-01  9.036918E-01  9.283120E-01  9.529322E-01  9.775524E-01  1.002173E+00  1.026793E+00
 1.051413E+00  1.076033E+00  1.100653E+00  1.125274E+00  1.149894E+00  1.174514E+00  1.199134E+00  1.223754E+00  1.248375E+00  1.272995E+00
 1.297615E+00  1.322235E+00  1.346855E+00  1.371475E+00  1.396096E+00  1.420716E+00  1.445336E+00  1.469956E+00  1.494576E+00  1.519197E+00
 1.543817E+00  1.568437E+00  1.593057E+00  1.617677E+00  1.642298E+00  1.666918E+00  1.691538E+00  1.716158E+00  1.740778E+00  1.765399E+00
 1.790019E+00  1.814639E+00  1.839259E+00  1.863879E+00  1.888500E+00  1.913120E+00  1.937740E+00  1.962360E+00  1.986980E+00  1.736482E-02
 4.198501E-02  6.660521E-02  9.122540E-02  1.158456E-01  1.404658E-01  1.650860E-01  1.897062E-01  2.143264E-01  2.389466E-01  2.635668E-01
 2.881869E-01  3.128071E-01  3.374273E-01  3.620475E-01  3.866677E-01  4.112879E-01  4.359081E-01  4.605283E-01  4.851485E-01  5.097687E-01
 5.343889E-01  5.590091E-01  5.836293E-01  6.082495E-01  6.328697E-01  6.574899E-01  6.821101E-01  7.067302E-01  7.313504E-01  7.559706E-01
 7.805908E-01  8.052110E-01  8.298312E-01  8.544514E-01  8.790716E-01  9.036918E-01  9.283120E-01  9.529322E-01  9.775524E-01  1.002173E+00
 1.026793E+00  1.051413E+00  1.076033E+00  1.100653E+00  1.125274E+00  1.149894E+00  1.174514E+00  1.199134E+00  1.223754E+00  1.248375E+00
 1.272995E+00  1.297615E+00  1.322235E+00  1.346855E+00  1.371475E+00  1.396096E+00  1.420716E+00  1.445336E+00  1.469956E+00  1.494576E+00
 1.519197E+00  1.543817E+00  1.568437E+00  1.593057E+00  1.617677E+00  1.642298E+00  1.666918E+00  1.691538E+00  1.716158E+00  1.740778E+00
 1.765399E+00  1.790019E+00  1.814639E+00  1.839259E+00  1.863879E+00  1.888500E+00  1.913120E+00  1.937740E+00  1.962360E+00  1.986980E+00
 2.170602E-02  4.632622E-02  7.094641E-02  9.556660E-02  1.201868E-01  1.448070E-01  1.694272E-01  1.940474E-01  2.186676E-01  2.432878E-01
 2.679080E-01  2.925282E-01  3.171483E-01  3.417685E-01  3.663887E-01  3.910089E-01  4.156291E-01  4.402493E-01  4.648695E-01  4.894897E-01
 5.141099E-01  5.387301E-01  5.633503E-01  5.879705E-01  6.125907E-01  6.372109E-01  6.618311E-01  6.864513E-01  7.110714E-01  7.356916E-01
 7.603118E-01  7.849320E-01  8.095522E-01  8.341724E-01  8.587926E-01  8.834128E-01  9.080330E-01  9.326532E-01  9.572734E-01  9.818936E-01
 1.006514E+00  1.031134E+00  1.055754E+00  1.080374E+00  1.104995E+00  1.129615E+00  1.154235E+00  1.178855E+00  1.203475E+00  1.228096E+00
 1.252716E+00  1.277336E+00  1.301956E+00  1.326576E+00  1.351196E+00  1.375817E+00  1.400437E+00  1.425057E+00  1.449677E+00  1.474297E+00
 1.498918E+00  1.523538E+00  1.548158E+00  1.572778E+00  1.597398E+00  1.622019E+00  1.646639E+00  1.671259E+00  1.695879E+00  1.720499E+00
 1.745120E+00  1.769740E+00  1.794360E+00  1.818980E+00  1.843600E+00  1.868221E+00  1.892841E+00  1.917461E+00  1.942081E+00  1.966701E+00
 1.991322E+00  2.170602E-02  4.632622E-02  7.094641E-02  9.556660E-02  1.201868E-01  1.448070E-01  1.694272E-01  1.940474E-01  2.186676E-01
 2.432878E-01  2.679080E-01  2.925282E-01  3.171483E-01  3.417685E-01  3.663887E-01  3.910089E-01  4.156291E-01  4.402493E-01  4.648695E-01
 4.894897E-01  5.141099E-01  5.387301E-01  5.633503E-01  5.879705E-01  6.125907E-01  6.372109E-01  6.618311E-01  6.864513E-01  7.110714E-01
 7.356916E-01  7.603118E-01  7.849320E-01  8.095522E-01  8.341724E-01  8.587926E-01  8.834128E-01  9.080330E-01  9.326532E-01  9.572734E-01
 9.818936E-01  1.006514E+00  1.031134E+00  1.055754E+00  1.080374E+00  1.104995E+00  1.129615E+00  1.154235E+00  1.178855E+00  1.203475E+00
 1.228096E+00  1.252716E+00  1.277336E+00  1.301956E+00  1.326576E+00  1.351196E+00  1.375817E+00  1.400437E+00  1.425057E+00  1.449677E+00
 1.474297E+00  1.498918E+00  1.523538E+00  1.548158E+00  1.572778E+00  1.597398E+00  1.622019E+00  1.646639E+00  1.671259E+00  1.695879E+00
 1.720499E+00  1.745120E+00  1.769740E+00  1.794360E+00  1.818980E+00  1.843600E+00  1.868221E+00  1.892841E+00  1.917461E+00  1.942081E+00
 1.966701E+00  1.991322E+00  2.604723E-02  5.066742E-02  7.528761E-02  9.990781E-02  1.245280E-01  1.491482E-01  1.737684E-01  1.983886E-01
 2.230088E-01  2.476290E-01  2.722492E-01  2.968694E-01  3.214896E-01  3.461097E-01  3.707299E-01  3.953501E-01  4.199703E-01  4.445905E-01
 4.692107E-01  4.938309E-01  5.184511E-01  5.430713E-01  5.676915E-01  5.923117E-01  6.169319E-01  6.415521E-01  6.661723E-01  6.907925E-01
 7.154127E-01  7.400328E-01  7.646530E-01  7.892732E-01  8.138934E-01  8.385136E-01  8.631338E-01  8.877540E-01  9.123742E-01  9.369944E-01
 9.616146E-01  9.862348E-01  1.010855E+00  1.035475E+00  1.060095E+00  1.084716E+00  1.109336E+00  1.133956E+00  1.158576E+00  1.183196E+00
 1.207817E+00  1.232437E+00  1.257057E+00  1.281677E+00  1.306297E+00  1.330917E+00  1.355538E+00  1.380158E+00  1.404778E+00  1.429398E+00
 1.454018E+00  1.478639E+00  1.503259E+00  1.527879E+00  1.552499E+00  1.577119E+00  1.601740E+00  1.626360E+00  1.650980E+00  1.675600E+00
 1.700220E+00  1.724841E+00  1.749461E+00  1.774081E+00  1.798701E+00  1.823321E+00  1.847942E+00  1.872562E+00  1.897182E+00  1.921802E+00
 1.946422E+00  1.971043E+00  1.995663E+00  2.604723E-02  5.066742E-02  7.528761E-02  9.990781E-02  1.245280E-01  1.491482E-01  1.737684E-01
 1.983886E-01  2.230088E-01  2.476290E-01  2.722492E-01  2.968694E-01  3.214896E-01  3.461097E-01  3.707299E-01  3.953501E-01  4.199703E-01
 4.445905E-01  4.692107E-01  4.938309E-01  5.184511E-01  5.430713E-01  5.676915E-01  5.923117E-01  6.169319E-01  6.415521E-01  6.661723E-01
 6.907925E-01  7.154127E-01  7.400328E-01  7.646530E-01  7.892732E-01  8.138934E-01  8.385136E-01  8.631338E-01  8.877540E-01  9.123742E-01
 9.369944E-01  9.616146E-01  9.862348E-01  1.010855E+00  1.035475E+00  1.060095E+00  1.084716E+00  1.109336E+00  1.133956E+00  1.158576E+00
 1.183196E+00  1.207817E+00  1.232437E+00  1.257057E+00  1.281677E+00  1.306297E+00  1.330917E+00  1.355538E+00  1.380158E+00  1.404778E+00
 1.429398E+00  1.454018E+00  1.478639E+00  1.503259E+00  1.527879E+00  1.552499E+00  1.577119E+00  1.601740E+00  1.626360E+00  1.650980E+00
 1.675600E+00  1.700220E+00  1.724841E+00  1.749461E+00  1.774081E+00  1.798701E+00  1.823321E+00  1.847942E+00  1.872562E+00  1.897182E+00
 1.921802E+00  1.946422E+00  1.971043E+00  1.995663E+00  3.038843E-02  5.500862E-02  7.962882E-02  1.042490E-01  1.288692E-01  1.534894E-01
 1.781096E-01  2.027298E-01  2.273500E-01  2.519702E-01  2.765904E-01  3.012106E-01  3.258308E-01  3.504510E-01  3.750711E-01  3.996913E-01
 4.243115E-01  4.489317E-01  4.735519E-01  4.981721E-01  5.227923E-01  5.474125E-01  5.720327E-01  5.966529E-01  6.212731E-01  6.458933E-01
 6.705135E-01  6.951337E-01  7.197539E-01  7.443741E-01  7.689942E-01  7.936144E-01  8.182346E-01  8.428548E-01  8.674750E-01  8.920952E-01
 9.167154E-01  9.413356E-01  9.659558E-01  9.905760E-01  1.015196E+00  1.039816E+00  1.064437E+00  1.089057E+00  1.113677E+00  1.138297E+00
 1.162917E+00  1.187538E+00  1.212158E+00  1.236778E+00  1.261398E+00  1.286018E+00  1.310639E+00  1.335259E+00  1.359879E+00  1.384499E+00
 1.409119E+00  1.433739E+00  1.458360E+00  1.482980E+00  1.507600E+00  1.532220E+00  1.556840E+00  1.581461E+00  1.606081E+00  1.630701E+00
 1.655321E+00  1.679941E+00  1.704562E+00  1.729182E+00  1.753802E+00  1.778422E+00  1.803042E+00  1.827663E+00  1.852283E+00  1.876903E+00
 1.901523E+00  1.926143E+00  1.950764E+00  1.975384E+00  2.000004E+00  3.038843E-02  5.500862E-02  7.962882E-02  1.042490E-01  1.288692E-01
 1.534894E-01  1.781096E-01  2.027298E-01  2.273500E-01  2.519702E-01  2.765904E-01  3.012106E-01  3.258308E-01  3.504510E-01  3.750711E-01
 3.996913E-01  4.243115E-01  4.489317E-01  4.735519E-01  4.981721E-01  5.227923E-01  5.474125E-01  5.720327E-01  5.966529E-01  6.212731E-01
 6.458933E-01  6.705135E-01  6.951337E-01  7.197539E-01  7.443741E-01  7.689942E-01  7.936144E-01  8.182346E-01  8.428548E-01  8.674750E-01
 8.920952E-01  9.167154E-01  9.413356E-01  9.659558E-01  9.905760E-01  1.015196E+00  1.039816E+00  1.064437E+00  1.089057E+00  1.113677E+00
 1.138297E+00  1.162917E+00  1.187538E+00  1.212158E+00  1.236778E+00  1.261398E+00  1.286018E+00  1.310639E+00  1.335259E+00  1.359879E+00
 1.384499E+00  1.409119E+00  1.433739E+00  1.458360E+00  1.482980E+00  1.507600E+00  1.532220E+00  1.556840E+00  1.581461E+00  1.606081E+00
 1.630701E+00  1.655321E+00  1.679941E+00  1.704562E+00  1.729182E+00  1.753802E+00  1.778422E+00  1.803042E+00  1.827663E+00  1.852283E+00
 1.876903E+00  1.901523E+00  1.926143E+00  1.950764E+00  1.975384E+00  2.000004E+00  3.472964E-02  5.934983E-02  8.397002E-02  1.085902E-01
 1.332104E-01  1.578306E-01  1.824508E-01  2.070710E-01  2.316912E-01  2.563114E-01  2.809316E-01  3.055518E-01  3.301720E-01  3.547922E-01
 3.794123E-01  4.040325E-01  4.286527E-01  4.532729E-01  4.778931E-01  5.025133E-01  5.271335E-01  5.517537E-01  5.763739E-01  6.009941E-01
 6.256143E-01  6.502345E-01  6.748547E-01  6.994749E-01  7.240951E-01  7.487153E-01  7.733355E-01  7.979556E-01  8.225758E-01  8.471960E-01
 8.718162E-01  8.964364E-01  9.210566E-01  9.456768E-01  9.702970E-01  9.949172E-01  1.019537E+00  1.044158E+00  1.068778E+00  1.093398E+00
 1.118018E+00  1.142638E+00  1.167259E+00  1.191879E+00  1.216499E+00  1.241119E+00  1.265739E+00  1.290360E+00  1.314980E+00  1.339600E+00
 1.364220E+00  1.388840E+00  1.413460E+00  1.438081E+00  1.462701E+00  1.487321E+00  1.511941E+00  1.536561E+00  1.561182E+00  1.585802E+00
 1.610422E+00  1.635042E+00  1.659662E+00  1.684283E+00  1.708903E+00  1.733523E+00  1.758143E+00  1.782763E+00  1.807384E+00  1.832004E+00
 1.856624E+00  1.881244E+00  1.905864E+00  1.930485E+00  1.955105E+00  1.979725E+00  2.004345E+00  3.472964E-02  5.934983E-02  8.397002E-02
 1.085902E-01  1.332104E-01  1.578306E-01  1.824508E-01  2.070710E-01  2.316912E-01  2.563114E-01  2.809316E-01  3.055518E-01  3.301720E-01
 3.547922E-01  3.794123E-01  4.040325E-01  4.286527E-01  4.532729E-01  4.778931E-01  5.025133E-01  5.271335E-01  5.517537E-01  5.763739E-01
 6.009941E-01  6.256143E-01  6.502345E-01  6.748547E-01  6.994749E-01  7.240951E-01  7.487153E-01  7.733355E-01  7.979556E-01  8.225758E-01
 8.471960E-01  8.718162E-01  8.964364E-01  9.210566E-01  9.456768E-01  9.702970E-01  9.949172E-01  1.019537E+00  1.044158E+00  1.068778E+00
 1.093398E+00  1.118018E+00  1.142638E+00  1.167259E+00  1.191879E+00  1.216499E+00  1.241119E+00  1.265739E+00  1.290360E+00  1.314980E+00
 1.339600E+00  1.364220E+00  1.388840E+00  1.413460E+00  1.438081E+00  1.462701E+00  1.487321E+00  1.511941E+00  1.536561E+00  1.561182E+00
 1.585802E+00  1.610422E+00  1.635042E+00  1.659662E+00  1.684283E+00  1.708903E+00  1.733523E+00  1.758143E+00  1.782763E+00  1.807384E+00
 1.832004E+00  1.856624E+00  1.881244E+00  1.905864E+00  1.930485E+00  1.955105E+00  1.979725E+00  2.004345E+00  3.907084E-02  6.369103E-02
 8.831123E-02  1.129314E-01  1.375516E-01  1.621718E-01  1.867920E-01  2.114122E-01  2.360324E-01  2.606526E-01  2.852728E-01  3.098930E-01
 3.345132E-01  3.591334E-01  3.837536E-01  4.083737E-01  4.329939E-01  4.576141E-01  4.822343E-01  5.068545E-01  5.314747E-01  5.560949E-01
 5.807151E-01  6.053353E-01  6.299555E-01  6.545757E-01  6.791959E-01  7.038161E-01  7.284363E-01  7.530565E-01  7.776767E-01  8.022968E-01
 8.269170E-01  8.515372E-01  8.761574E-01  9.007776E-01  9.253978E-01  9.500180E-01  9.746382E-01  9.992584E-01  1.023879E+00  1.048499E+00
 1.073119E+00  1.097739E+00  1.122359E+00  1.146980E+00  1.171600E+00  1.196220E+00  1.220840E+00  1.245460E+00  1.270081E+00  1.294701E+00
 1.319321E+00  1.343941E+00  1.368561E+00  1.393182E+00  1.417802E+00  1.442422E+00  1.467042E+00  1.491662E+00  1.516282E+00  1.540903E+00
 1.565523E+00  1.590143E+00  1.614763E+00  1.639383E+00  1.664004E+00  1.688624E+00  1.713244E+00  1.737864E+00  1.762484E+00  1.787105E+00
 1.811725E+00  1.836345E+00  1.860965E+00  1.885585E+00  1.910206E+00  1.934826E+00  1.959446E+00  1.984066E+00  2.008686E+00  3.907084E-02
 6.369103E-02  8.831123E-02  1.129314E-01  1.375516E-01  1.621718E-01  1.867920E-01  2.114122E-01  2.360324E-01  2.606526E-01  2.852728E-01
 3.098930E-01  3.345132E-01  3.591334E-01  3.837536E-01  4.083737E-01  4.329939E-01  4.576141E-01  4.822343E-01  5.068545E-01  5.314747E-01
 5.560949E-01  5.807151E-01  6.053353E-01  6.299555E-01  6.545757E-01  6.791959E-01  7.038161E-01  7.284363E-01  7.530565E-01  7.776767E-01
 8.022968E-01  8.269170E-01  8.515372E-01  8.761574E-01  9.007776E-01  9.253978E-01  9.500180E-01  9.746382E-01  9.992584E-01  1.023879E+00
 1.048499E+00  1.073119E+00  1.097739E+00  1.122359E+00  1.146980E+00  1.171600E+00  1.196220E+00  1.220840E+00  1.245460E+00  1.270081E+00
 1.294701E+00  1.319321E+00  1.343941E+00  1.368561E+00  1.393182E+00  1.417802E+00  1.442422E+00  1.467042E+00  1.491662E+00  1.516282E+00
 1.540903E+00  1.565523E+00  1.590143E+00  1.614763E+00  1.639383E+00  1.664004E+00  1.688624E+00  1.713244E+00  1.737864E+00  1.762484E+00
 1.787105E+00  1.811725E+00  1.836345E+00  1.860965E+00  1.885585E+00  1.910206E+00  1.934826E+00  1.959446E+00  1.984066E+00  2.008686E+00
 4.341204E-02  6.803224E-02  9.265243E-02  1.172726E-01  1.418928E-01  1.665130E-01  1.911332E-01  2.157534E-01  2.403736E-01  2.649938E-01
 2.896140E-01  3.142342E-01  3.388544E-01  3.634746E-01  3.880948E-01  4.127150E-01  4.373351E-01  4.619553E-01  4.865755E-01  5.111957E-01
 5.358159E-01  5.604361E-01  5.850563E-01  6.096765E-01  6.342967E-01  6.589169E-01  6.835371E-01  7.081573E-01  7.327775E-01  7.573977E-01
 7.820179E-01  8.066381E-01  8.312582E-01  8.558784E-01  8.804986E-01  9.051188E-01  9.297390E-01  9.543592E-01  9.789794E-01  1.003600E+00
 1.028220E+00  1.052840E+00  1.077460E+00  1.102080E+00  1.126701E+00  1.151321E+00  1.175941E+00  1.200561E+00  1.225181E+00  1.249802E+00
 1.274422E+00  1.299042E+00  1.323662E+00  1.348282E+00  1.372903E+00  1.397523E+00  1.422143E+00  1.446763E+00  1.471383E+00  1.496003E+00
 1.520624E+00  1.545244E+00  1.569864E+00  1.594484E+00  1.619104E+00  1.643725E+00  1.668345E+00  1.692965E+00  1.717585E+00  1.742205E+00
 1.766826E+00  1.791446E+00  1.816066E+00  1.840686E+00  1.865306E+00  1.889927E+00  1.914547E+00  1.939167E+00  1.963787E+00  1.988407E+00
 2.013028E+00  4.341204E-02  6.803224E-02  9.265243E-02  1.172726E-01  1.418928E-01  1.665130E-01  1.911332E-01  2.157534E-01  2.403736E-01
 2.649938E-01  2.896140E-01  3.142342E-01  3.388544E-01  3.634746E-01  3.880948E-01  4.127150E-01  4.373351E-01  4.619553E-01  4.865755E-01
 5.111957E-01  5.358159E-01  5.604361E-01  5.850563E-01  6.096765E-01  6.342967E-01  6.589169E-01  6.835371E-01  7.081573E-01  7.327775E-01
 7.573977E-01  7.820179E-01  8.066381E-01  8.312582E-01  8.558784E-01  8.804986E-01  9.051188E-01  9.297390E-01  9.543592E-01  9.789794E-01
 1.003600E+00  1.028220E+00  1.052840E+00  1.077460E+00  1.102080E+00  1.126701E+00  1.151321E+00  1.175941E+00  1.200561E+00  1.225181E+00
 1.249802E+00  1.274422E+00  1.299042E+00  1.323662E+00  1.348282E+00  1.372903E+00  1.397523E+00  1.422143E+00  1.446763E+00  1.471383E+00
 1.496003E+00  1.520624E+00  1.545244E+00  1.569864E+00  1.594484E+00  1.619104E+00  1.643725E+00  1.668345E+00  1.692965E+00  1.717585E+00
 1.742205E+00  1.766826E+00  1.791446E+00  1.816066E+00  1.840686E+00  1.865306E+00  1.889927E+00  1.914547E+00  1.939167E+00  1.963787E+00
 1.988407E+00  2.013028E+00  4.775325E-02  7.237344E-02  9.699364E-02  1.216138E-01  1.462340E-01  1.708542E-01  1.954744E-01  2.200946E-01
 2.447148E-01  2.693350E-01  2.939552E-01  3.185754E-01  3.431956E-01  3.678158E-01  3.924360E-01  4.170562E-01  4.416764E-01  4.662965E-01
 4.909167E-01  5.155369E-01  5.401571E-01  5.647773E-01  5.893975E-01  6.140177E-01  6.386379E-01  6.632581E-01  6.878783E-01  7.124985E-01
 7.371187E-01  7.617389E-01  7.863591E-01  8.109793E-01  8.355995E-01  8.602196E-01  8.848398E-01  9.094600E-01  9.340802E-01  9.587004E-01
 9.833206E-01  1.007941E+00  1.032561E+00  1.057181E+00  1.081801E+00  1.106422E+00  1.131042E+00  1.155662E+00  1.180282E+00  1.204902E+00
 1.229523E+00  1.254143E+00  1.278763E+00  1.303383E+00  1.328003E+00  1.352624E+00  1.377244E+00  1.401864E+00  1.426484E+00  1.451104E+00
 1.475724E+00  1.500345E+00  1.524965E+00  1.549585E+00  1.574205E+00  1.598825E+00  1.623446E+00  1.648066E+00  1.672686E+00  1.697306E+00
 1.721926E+00  1.746547E+00  1.771167E+00  1.795787E+00  1.820407E+00  1.845027E+00  1.869648E+00  1.894268E+00  1.918888E+00  1.943508E+00
 1.968128E+00  1.992749E+00  2.017369E+00  4.775325E-02  7.237344E-02  9.699364E-02  1.216138E-01  1.462340E-01  1.708542E-01  1.954744E-01
 2.200946E-01  2.447148E-01  2.693350E-01  2.939552E-01  3.185754E-01  3.431956E-01  3.678158E-01  3.924360E-01  4.170562E-01  4.416764E-01
 4.662965E-01  4.909167E-01  5.155369E-01  5.401571E-01  5.647773E-01  5.893975E-01  6.140177E-01  6.386379E-01  6.632581E-01  6.878783E-01
 7.124985E-01  7.371187E-01  7.617389E-01  7.863591E-01  8.109793E-01  8.355995E-01  8.602196E-01  8.848398E-01  9.094600E-01  9.340802E-01
 9.587004E-01  9.833206E-01  1.007941E+00  1.032561E+00  1.057181E+00  1.081801E+00  1.106422E+00  1.131042E+00  1.155662E+00  1.180282E+00
 1.204902E+00  1.229523E+00  1.254143E+00  1.278763E+00  1.303383E+00  1.328003E+00  1.352624E+00  1.377244E+00  1.401864E+00  1.426484E+00
 1.451104E+00  1.475724E+00  1.500345E+00  1.524965E+00  1.549585E+00  1.574205E+00  1.598825E+00  1.623446E+00  1.648066E+00  1.672686E+00
 1.697306E+00  1.721926E+00  1.746547E+00  1.771167E+00  1.795787E+00  1.820407E+00  1.845027E+00  1.869648E+00  1.894268E+00  1.918888E+00
 1.943508E+00  1.968128E+00  1.992749E+00  2.017369E+00  5.209445E-02  7.671465E-02  1.013348E-01  1.259550E-01  1.505752E-01  1.751954E-01
 1.998156E-01  2.244358E-01  2.490560E-01  2.736762E-01  2.982964E-01  3.229166E-01  3.475368E-01  3.721570E-01  3.967772E-01  4.213974E-01
 4.460176E-01  4.706377E-01  4.952579E-01  5.198781E-01  5.444983E-01  5.691185E-01  5.937387E-01  6.183589E-01  6.429791E-01  6.675993E-01
 6.922195E-01  7.168397E-01  7.414599E-01  7.660801E-01  7.907003E-01  8.153205E-01  8.399407E-01  8.645608E-01  8.891810E-01  9.138012E-01
 9.384214E-01  9.630416E-01  9.876618E-01  1.012282E+00  1.036902E+00  1.061522E+00  1.086143E+00  1.110763E+00  1.135383E+00  1.160003E+00
 1.184623E+00  1.209244E+00  1.233864E+00  1.258484E+00  1.283104E+00  1.307724E+00  1.332345E+00  1.356965E+00  1.381585E+00  1.406205E+00
 1.430825E+00  1.455446E+00  1.480066E+00  1.504686E+00  1.529306E+00  1.553926E+00  1.578546E+00  1.603167E+00  1.627787E+00  1.652407E+00
 1.677027E+00  1.701647E+00  1.726268E+00  1.750888E+00  1.775508E+00  1.800128E+00  1.824748E+00  1.849369E+00  1.873989E+00  1.898609E+00
 1.923229E+00  1.947849E+00  1.972470E+00  1.997090E+00  2.021710E+00  5.209445E-02  7.671465E-02  1.013348E-01  1.259550E-01  1.505752E-01
 1.751954E-01  1.998156E-01  2.244358E-01  2.490560E-01  2.736762E-01  2.982964E-01  3.229166E-01  3.475368E-01  3.721570E-01  3.967772E-01
 4.213974E-01  4.460176E-01  4.706377E-01  4.952579E-01  5.198781E-01  5.444983E-01  5.691185E-01  5.937387E-01  6.183589E-01  6.429791E-01
 6.675993E-01  6.922195E-01  7.168397E-01  7.414599E-01  7.660801E-01  7.907003E-01  8.153205E-01  8.399407E-01  8.645608E-01  8.891810E-01
 9.138012E-01  9.384214E-01  9.630416E-01  9.876618E-01  1.012282E+00  1.036902E+00  1.061522E+00  1.086143E+00  1.110763E+00  1.135383E+00
 1.160003E+00  1.184623E+00  1.209244E+00  1.233864E+00  1.258484E+00  1.283104E+00  1.307724E+00  1.332345E+00  1.356965E+00  1.381585E+00
 1.406205E+00  1.430825E+00  1.455446E+00  1.480066E+00  1.504686E+00  1.529306E+00  1.553926E+00  1.578546E+00  1.603167E+00  1.627787E+00
 1.652407E+00  1.677027E+00  1.701647E+00  1.726268E+00  1.750888E+00  1.775508E+00  1.800128E+00  1.824748E+00  1.849369E+00  1.873989E+00
 1.898609E+00  1.923229E+00  1.947849E+00  1.972470E+00  1.997090E+00  2.021710E+00  5.643566E-02  8.105585E-02  1.056760E-01  1.302962E-01
 1.549164E-01  1.795366E-01  2.041568E-01  2.287770E-01  2.533972E-01  2.780174E-01  3.026376E-01  3.272578E-01  3.518780E-01  3.764982E-01