TITLE = "  1.00000E+00 [h]"
VARIABLES="X [m]","Y [m]","Z [m]","Liquid Pressure [Pa]","Liquid Saturation","Gas Pressure [Pa]","Gas Saturation","Permeability [m^2]","Porosity","pH","Total H+ [M]","Total Na+ [M]","Total Mg++ [M]","Total Ca++ [M]","Total NO3- [M]","Total SO4-- [M]","Total Fe++ [M]","Total K+ [M]","Total Al+++ [M]","Total SiO2(aq) [M]","Total O2(aq) [M]","Total Cl- [M]","Total Ti(OH)4(aq) [M]","Total HPO4-- [M]","Total Mn++ [M]","Total CO2(aq) [M]","Total ClO4- [M]","Free H+ [M]","Free Na+ [M]","Free Mg++ [M]","Free Ca++ [M]","Free NO3- [M]","Free SO4-- [M]","Free Fe++ [M]","Free K+ [M]","Free Al+++ [M]","Free SiO2(aq) [M]","Free O2(aq) [M]","Free Cl- [M]","Free Ti(OH)4(aq) [M]","Free HPO4-- [M]","Free Mn++ [M]","Free CO2(aq) [M]","Free ClO4- [M]","Active Gas O2(g) [Bar]","Active Gas CO2(g) [Bar]","Glass_FB VF [m^3 mnrl/m^3 bulk]","Mg(ClO4)2(s) VF [m^3 mnrl/m^3 bulk]","Ca(ClO4)2(s) VF [m^3 mnrl/m^3 bulk]","Glass_FB Rate [mol/m^3/sec]","Mg(ClO4)2(s) Rate [mol/m^3/sec]","Ca(ClO4)2(s) Rate [mol/m^3/sec]","Biomass_Perchlorate [mol/m^3]","Material ID"
ZONE T="1.00000E+00", STRANDID=1, SOLUTIONTIME=1.00000E+00, I=51, J=2, K=51, VARLOCATION=([4-54]=CELLCENTERED), DATAPACKING=BLOCK
 0.000000E+00  2.000000E-02  4.000000E-02  6.000000E-02  8.000000E-02  1.000000E-01  1.200000E-01  1.400000E-01  1.600000E-01  1.800000E-01 
 2.000000E-01  2.200000E-01  2.400000E-01  2.600000E-01  2.800000E-01  3.000000E-01  3.200000E-01  3.400000E-01  3.600000E-01  3.800000E-01 
 4.000000E-01  4.200000E-01  4.400000E-01  4.600000E-01  4.800000E-01  5.000000E-01  5.200000E-01  5.400000E-01  5.600000E-01  5.800000E-01 
 6.000000E-01  6.200000E-01  6.400000E-01  6.600000E-01  6.800000E-01  7.000000E-01  7.200000E-01  7.400000E-01  7.600000E-01  7.800000E-01 
 8.000000E-01  8.200000E-01  8.400000E-01  8.600000E-01  8.800000E-01  9.000000E-01  9.200000E-01  9.400000E-01  9.600000E-01  9.800000E-01 
 1.000000E+00  0.000000E+00  2.000000E-02  4.000000E-02  6.000000E-02  8.000000E-02  1.000000E-01  1.200000E-01  1.400000E-01  1.600000E-01 
 1.800000E-01  2.000000E-01  2.200000E-01  2.400000E-01  2.600000E-01  2.800000E-01  3.000000E-01  3.200000E-01  3.400000E-01  3.600000E-01 
 3.800000E-01  4.000000E-01  4.200000E-01  4.400000E-01  4.600000E-01  4.800000E-01  5.000000E-01  5.200000E-01  5.400000E-01  5.600000E-01 
 5.800000E-01  6.000000E-01  6.200000E-01  6.400000E-01  6.600000E-01  6.800000E-01  7.000000E-01  7.200000E-01  7.400000E-01  7.600000E-01 
 7.800000E-01  8.000000E-01  8.200000E-01  8.400000E-01  8.600000E-01  8.800000E-01  9.000000E-01  9.200000E-01  9.400000E-01  9.600000E-01 
 9.800000E-01  1.000000E+00  0.000000E+00  2.000000E-02  4.000000E-02  6.000000E-02  8.000000E-02  1.000000E-01  1.200000E-01  1.400000E-01 
 1.600000E-01  1.800000E-01  2.000000E-01  2.200000E-01  2.400000E-01  2.600000E-01  2.800000E-01  3.000000E-01  3.200000E-01  3.400000E-01 
 3.600000E-01  3.800000E-01  4.000000E-01  4.200000E-01  4.400000E-01  4.600000E-01  4.800000E-01  5.000000E-01  5.200000E-01  5.400000E-01 
 5.600000E-01  5.800000E-01  6.000000E-01  6.200000E-01  6.400000E-01  6.600000E-01  6.800000E-01  7.000000E-01  7.200000E-01  7.400000E-01 
 7.600000E-01  7.800000E-01  8.000000E-01  8.200000E-01  8.400000E-01  8.600000E-01  8.800000E-01  9.000000E-01  9.200000E-01  9.400000E-01 
 9.600000E-01  9.800000E-01  1.000000E+00  0.000000E+00  2.000000E-02  4.000000E-02  6.000000E-02  8.000000E-02  1.000000E-01  1.200000E-01 
 1.400000E-01  1.600000E-01  1.800000E-01  2.000000E-01  2.200000E-01  2.400000E-01  2.600000E-01  2.800000E-01  3.000000E-01  3.200000E-01 
 3.400000E-01  3.600000E-01  3.800000E-01  4.000000E-01  4.200000E-01  4.400000E-01  4.600000E-01  4.800000E-01  5.000000E-01  5.200000E-01 
 5.400000E-01  5.600000E-01  5.800000E-01  6.000000E-01  6.200000E-01  6.400000E-01  6.600000E-01  6.800000E-01  7.000000E-01  7.200000E-01 
 7.400000E-01  7.600000E-01  7.800000E-01  8.000000E-01  8.200000E-01  8.400000E-01  8.600000E-01  8.800000E-01  9.000000E-01  9.200000E-01 
 9.400000E-01  9.600000E-01  9.800000E-01  1.000000E+00  0.000000E+00  2.000000E-02  4.000000E-02  6.000000E-02  8.000000E-02  1.000000E-01 
 1.200000E-01  1.400000E-01  1.600000E-01  1.800000E-01  2.000000E-01  2.200000E-01  2.400000E-01  2.600000E-01  2.800000E-01  3.000000E-01 
 3.200000E-01  3.400000E-01  3.600000E-01  3.800000E-01  4.000000E-01  4.200000E-01  4.400000E-01  4.600000E-01  4.800000E-01  5.000000E-01 
 5.200000E-01  5.400000E-01  5.600000E-01  5.800000E-01  6.000000E-01  6.200000E-01  6.400000E-01  6.600000E-01  6.800000E-01  7.000000E-01 
 7.200000E-01  7.400000E-01  7.600000E-01  7.800000E-01  8.000000E-01  8.200000E-01  8.400000E-01  8.600000E-01  8.800000E-01  9.000000E-01 
 9.200000E-01  9.400000E-01  9.600000E-01  9.800000E-01  1.000000E+00  0.000000E+00  2.000000E-02  4.000000E-02  6.000000E-02  8.000000E-02 
 1.000000E-01  1.200000E-01  1.400000E-01  1.600000E-01  1.800000E-01  2.000000E-01  2.200000E-01  2.400000E-01  2.600000E-01  2.800000E-01 
 3.000000E-01  3.200000E-01  3.400000E-01  3.600000E-01  3.800000E-01  4.000000E-01  4.200000E-01  4.400000E-01  4.600000E-01  4.800000E-01 
 5.000000E-01  5.200000E-01  5.400000E-01  5.600000E-01  5.800000E-01  6.000000E-01  6.200000E-01  6.400000E-01  6.600000E-01  6.800000E-01 
 7.000000E-01  7.200000E-01  7.400000E-01  7.600000E-01  7.800000E-01  8.000000E-01  8.200000E-01  8.400000E-01  8.600000E-01  8.800000E-01 
 9.000000E-01  9.200000E-01  9.400000E-01  9.600000E-01  9.800000E-01  1.000000E+00  0.000000E+00  2.000000E-02  4.000000E-02  6.000000E-02 
 8.000000E-02  1.000000E-01  1.200000E-01  1.400000E-01  1.600000E-01  1.800000E-01  2.000000E-01  2.200000E-01  2.400000E-01  2.600000E-01 
 2.800000E-01  3.000000E-01  3.200000E-01  3.400000E-01  3.600000E-01  3.800000E-01  4.000000E-01  4.200000E-01  4.400000E-01  4.600000E-01 
 4.800000E-01  5.000000E-01  5.200000E-01  5.400000E-01  5.600000E-01  5.800000E-01  6.000000E-01  6.200000E-01  6.400000E-01  6.600000E-01 
 6.800000E-01  7.000000E-01  7.200000E-01  7.400000E-01  7.600000E-01  7.800000E-01  8.000000E-01  8.200000E-01  8.400000E-01  8.600000E-01 
 8.800000E-01  9.000000E-01  9.200000E-01  9.400000E-01  9.600000E-01  9.800000E-01  1.000000E+00  0.000000E+00  2.000000E-02  4.000000E-02 
 6.000000E-02  8.000000E-02  1.000000E-01  1.200000E-01  1.400000E-01  1.600000E-01  1.800000E-01  2.000000E-01  2.200000E-01  2.400000E-01 
 2.600000E-01  2.800000E-01  3.000000E-01  3.200000E-01  3.400000E-01  3.600000E-01  3.800000E-01  4.000000E-01  4.200000E-01  4.400000E-01 
 4.600000E-01  4.800000E-01  5.000000E-01  5.200000E-01  5.400000E-01  5.600000E-01  5.800000E-01  6.000000E-01  6.200000E-01  6.400000E-01 
 6.600000E-01  6.800000E-01  7.000000E-01  7.200000E-01  7.400000E-01  7.600000E-01  7.800000E-01  8.000000E-01  8.200000E-01  8.400000E-01 
 8.600000E-01  8.800000E-01  9.000000E-01  9.200000E-01  9.400000E-01  9.600000E-01  9.800000E-01  1.000000E+00  0.000000E+00  2.000000E-02 
 4.000000E-02  6.000000E-02  8.000000E-02  1.000000E-01  1.200000E-01  1.400000E-01  1.600000E-01  1.800000E-01  2.000000E-01  2.200000E-01 
 2.400000E-01  2.600000E-01  2.800000E-01  3.000000E-01  3.200000E-01  3.400000E-01  3.600000E-01  3.800000E-01  4.000000E-01  4.200000E-01 
 4.400000E-01  4.600000E-01  4.800000E-01  5.000000E-01  5.200000E-01  5.400000E-01  5.600000E-01  5.800000E-01  6.000000E-01  6.200000E-01 
 6.400000E-01  6.600000E-01  6.800000E-01  7.000000E-01  7.200000E-01  7.400000E-01  7.600000E-01  7.800000E-01  8.000000E-01  8.200000E-01 
 8.400000E-01  8.600000E-01  8.800000E-01  9.000000E-01  9.200000E-01  9.400000E-01  9.600000E-01  9.800000E-01  1.000000E+00  0.000000E+00 
 2.000000E-02  4.000000E-02  6.000000E-02  8.000000E-02  1.000000E-01  1.200000E-01  1.400000E-01  1.600000E-01  1.800000E-01  2.000000E-01 
 2.200000E-01  2.400000E-01  2.600000E-01  2.800000E-01  3.000000E-01  3.200000E-01  3.400000E-01  3.600000E-01  3.800000E-01  4.000000E-01 
 4.200000E-01  4.400000E-01  4.600000E-01  4.800000E-01  5.000000E-01  5.200000E-01  5.400000E-01  5.600000E-01  5.800000E-01  6.000000E-01 
 6.200000E-01  6.400000E-01  6.600000E-01  6.800000E-01  7.000000E-01  7.200000E-01  7.400000E-01  7.600000E-01  7.800000E-01  8.000000E-01 
 8.200000E-01  8.400000E-01  8.600000E-01  8.800000E-01  9.000000E-01  9.200000E-01  9.400000E-01  9.600000E-01  9.800000E-01  1.000000E+00 
 0.000000E+00  2.000000E-02  4.000000E-02  6.000000E-02  8.000000E-02  1.000000E-01  1.200000E-01  1.400000E-01  1.600000E-01  1.800000E-01 
 2.000000E-01  2.200000E-01  2.400000E-01  2.600000E-01  2.800000E-01  3.000000E-01  3.200000E-01  3.400000E-01  3.600000E-01  3.800000E-01 
 4.000000E-01  4.200000E-01  4.400000E-01  4.600000E-01  4.800000E-01  5.000000E-01  5.200000E-01  5.400000E-01  5.600000E-01  5.800000E-01 
 6.000000E-01  6.200000E-01  6.400000E-01  6.600000E-01  6.800000E-01  7.000000E-01  7.200000E-01  7.400000E-01  7.600000E-01  7.800000E-01 
 8.000000E-01  8.200000E-01  8.400000E-01  8.600000E-01  8.800000E-01  9.000000E-01  9.200000E-01  9.400000E-01  9.600000E-01  9.800000E-01 
 1.000000E+00  0.000000E+00  2.000000E-02  4.000000E-02  6.000000E-02  8.000000E-02  1.000000E-01  1.200000E-01  1.400000E-01  1.600000E-01 
 1.800000E-01  2.000000E-01  2.200000E-01  2.400000E-01  2.600000E-01  2.800000E-01  3.000000E-01  3.200000E-01  3.400000E-01  3.600000E-01 
 3.800000E-01  4.000000E-01  4.200000E-01  4.400000E-01  4.600000E-01  4.800000E-01  5.000000E-01  5.200000E-01  5.400000E-01  5.600000E-01 
 5.800000E-01  6.000000E-01  6.200000E-01  6.400000E-01  6.600000E-01  6.800000E-01  7.000000E-01  7.200000E-01  7.400000E-01  7.600000E-01 
 7.800000E-01  8.000000E-01  8.200000E-01  8.400000E-01  8.600000E-01  8.800000E-01  9.000000E-01  9.200000E-01  9.400000E-01  9.600000E-01 
 9.800000E-01  1.000000E+00  0.000000E+00  2.000000E-02  4.000000E-02  6.000000E-02  8.000000E-02  1.000000E-01  1.200000E-01  1.400000E-01 
 1.600000E-01  1.800000E-01  2.000000E-01  2.200000E-01  2.400000E-01  2.600000E-01  2.800000E-01  3.000000E-01  3.200000E-01  3.400000E-01 
 3.600000E-01  3.800000E-01  4.000000E-01  4.200000E-01  4.400000E-01  4.600000E-01  4.800000E-01  5.000000E-01  5.200000E-01  5.400000E-01 
 5.600000E-01  5.800000E-01  6.000000E-01  6.200000E-01  6.400000E-01  6.600000E-01  6.800000E-01  7.000000E-01  7.200000E-01  7.400000E-01 
 7.600000E-01  7.800000E-01  8.000000E-01  8.200000E-01  8.400000E-01  8.600000E-01  8.800000E-01  9.000000E-01  9.200000E-01  9.400000E-01 
 9.600000E-01  9.800000E-01  1.000000E+00  0.000000E+00  2.000000E-02  4.000000E-02  6.000000E-02  8.000000E-02  1.000000E-01  1.200000E-01 
 1.400000E-01  1.600000E-01  1.800000E-01  2.000000E-01  2.200000E-01  2.400000E-01  2.600000E-01  2.800000E-01  3.000000E-01  3.200000E-01 
 3.400000E-01  3.600000E-01  3.800000E-01  4.000000E-01  4.200000E-01  4.400000E-01  4.600000E-01  4.800000E-01  5.000000E-01  5.200000E-01 
 5.400000E-01  5.600000E-01  5.800000E-01  6.000000E-01  6.200000E-01  6.400000E-01  6.600000E-01  6.800000E-01  7.000000E-01  7.200000E-01 
 7.400000E-01  7.600000E-01  7.800000E-01  8.000000E-01  8.200000E-01  8.400000E-01  8.600000E-01  8.800000E-01  9.000000E-01  9.200000E-01 
 9.400000E-01  9.600000E-01  9.800000E-01  1.000000E+00  0.000000E+00  2.000000E-02  4.000000E-02  6.000000E-02  8.000000E-02  1.000000E-01 
 1.200000E-01  1.400000E-01  1.600000E-01  1.800000E-01  2.000000E-01  2.200000E-01  2.400000E-01  2.600000E-01  2.800000E-01  3.000000E-01 
 3.200000E-01  3.400000E-01  3.600000E-01  3.800000E-01  4.000000E-01  4.200000E-01  4.400000E-01  4.600000E-01  4.800000E-01  5.000000E-01 
 5.200000E-01  5.400000E-01  5.600000E-01  5.800000E-01  6.000000E-01  6.200000E-01  6.400000E-01  6.600000E-01  6.800000E-01  7.000000E-01 
 7.200000E-01  7.400000E-01  7.600000E-01  7.800000E-01  8.000000E-01  8.200000E-01  8.400000E-01  8.600000E-01  8.800000E-01  9.000000E-01 
 9.200000E-01  9.400000E-01  9.600000E-01  9.800000E-01  1.000000E+00  0.000000E+00  2.000000E-02  4.000000E-02  6.000000E-02  8.000000E-02 
 1.000000E-01  1.200000E-01  1.400000E-01  1.600000E-01  1.800000E-01  2.000000E-01  2.200000E-01  2.400000E-01  2.600000E-01  2.800000E-01 
 3.000000E-01  3.200000E-01  3.400000E-01  3.600000E-01  3.800000E-01  4.000000E-01  4.200000E-01  4.400000E-01  4.600000E-01  4.800000E-01 
 5.000000E-01  5.200000E-01  5.400000E-01  5.600000E-01  5.800000E-01  6.000000E-01  6.200000E-01  6.400000E-01  6.600000E-01  6.800000E-01 
 7.000000E-01  7.200000E-01  7.400000E-01  7.600000E-01  7.800000E-01  8.000000E-01  8.200000E-01  8.400000E-01  8.600000E-01  8.800000E-01 
 9.000000E-01  9.200000E-01  9.400000E-01  9.600000E-01  9.800000E-01  1.000000E+00  0.000000E+00  2.000000E-02  4.000000E-02  6.000000E-02 
 8.000000E-02  1.000000E-01  1.200000E-01  1.400000E-01  1.600000E-01  1.800000E-01  2.000000E-01  2.200000E-01  2.400000E-01  2.600000E-01 
 2.800000E-01  3.000000E-01  3.200000E-01  3.400000E-01  3.600000E-01  3.800000E-01  4.000000E-01  4.200000E-01  4.400000E-01  4.600000E-01 
 4.800000E-01  5.000000E-01  5.200000E-01  5.400000E-01  5.600000E-01  5.800000E-01  6.000000E-01  6.200000E-01  6.400000E-01  6.600000E-01 
 6.800000E-01  7.000000E-01  7.200000E-01  7.400000E-01  7.600000E-01  7.800000E-01  8.000000E-01  8.200000E-01  8.400000E-01  8.600000E-01 
 8.800000E-01  9.000000E-01  9.200000E-01  9.400000E-01  9.600000E-01  9.800000E-01  1.000000E+00  0.000000E+00  2.000000E-02  4.000000E-02 
 6.000000E-02  8.000000E-02  1.000000E-01  1.200000E-01  1.400000E-01  1.600000E-01  1.800000E-01  2.000000E-01  2.200000E-01  2.400000E-01 
 2.600000E-01  2.800000E-01  3.000000E-01  3.200000E-01  3.400000E-01  3.600000E-01  3.800000E-01  4.000000E-01  4.200000E-01  4.400000E-01 
 4.600000E-01  4.800000E-01  5.000000E-01  5.200000E-01  5.400000E-01  5.600000E-01  5.800000E-01  6.000000E-01  6.200000E-01  6.400000E-01 
 6.600000E-01  6.800000E-01  7.000000E-01  7.200000E-01  7.400000E-01  7.600000E-01  7.800000E-01  8.000000E-01  8.200000E-01  8.400000E-01 
 8.600000E-01  8.800000E-01  9.000000E-01  9.200000E-01  9.400000E-01  9.600000E-01  9.800000E-01  1.000000E+00  0.000000E+00  2.000000E-02 
 4.000000E-02  6.000000E-02  8.000000E-02  1.000000E-01  1.200000E-01  1.400000E-01  1.600000E-01  1.800000E-01  2.000000E-01  2.200000E-01 
 2.400000E-01  2.600000E-01  2.800000E-01  3.000000E-01  3.200000E-01  3.400000E-01  3.600000E-01  3.800000E-01  4.000000E-01  4.200000E-01 
 4.400000E-01  4.600000E-01  4.800000E-01  5.000000E-01  5.200000E-01  5.400000E-01  5.600000E-01  5.800000E-01  6.000000E-01  6.200000E-01 
 6.400000E-01  6.600000E-01  6.800000E-01  7.000000E-01  7.200000E-01  7.400000E-01  7.600000E-01  7.800000E-01  8.000000E-01  8.200000E-01 
 8.400000E-01  8.600000E-01  8.800000E-01  9.000000E-01  9.200000E-01  9.400000E-01  9.600000E-01  9.800000E-01  1.000000E+00  0.000000E+00 
 2.000000E-02  4.000000E-02  6.000000E-02  8.000000E-02  1.000000E-01  1.200000E-01  1.400000E-01  1.600000E-01  1.800000E-01  2.000000E-01 
 2.200000E-01  2.400000E-01  2.600000E-01  2.800000E-01  3.000000E-01  3.200000E-01  3.400000E-01  3.600000E-01  3.800000E-01  4.000000E-01 
 4.200000E-01  4.400000E-01  4.600000E-01  4.800000E-01  5.000000E-01  5.200000E-01  5.400000E-01  5.600000E-01  5.800000E-01  6.000000E-01 
 6.200000E-01  6.400000E-01  6.600000E-01  6.800000E-01  7.000000E-01  7.200000E-01  7.400000E-01  7.600000E-01  7.800000E-01  8.000000E-01 
 8.200000E-01  8.400000E-01  8.600000E-01  8.800000E-01  9.000000E-01  9.200000E-01  9.400000E-01  9.600000E-01  9.800000E-01  1.000000E+00 
 0.000000E+00  2.000000E-02  4.000000E-02  6.000000E-02  8.000000E-02  1.000000E-01  1.200000E-01  1.400000E-01  1.600000E-01  1.800000E-01 
 2.000000E-01  2.200000E-01  2.400000E-01  2.600000E-01  2.800000E-01  3.000000E-01  3.200000E-01  3.400000E-01  3.600000E-01  3.800000E-01 
 4.000000E-01  4.200000E-01  4.400000E-01  4.600000E-01  4.800000E-01  5.000000E-01  5.200000E-01  5.400000E-01  5.600000E-01  5.800000E-01 
 6.000000E-01  6.200000E-01  6.400000E-01  6.600000E-01  6.800000E-01  7.000000E-01  7.200000E-01  7.400000E-01  7.600000E-01  7.800000E-01 
 8.000000E-01  8.200000E-01  8.400000E-01  8.600000E-01  8.800000E-01  9.000000E-01  9.200000E-01  9.400000E-01  9.600000E-01  9.800000E-01 
 1.000000E+00  0.000000E+00  2.000000E-02  4.000000E-02  6.000000E-02  8.000000E-02  1.000000E-01  1.200000E-01  1.400000E-01  1.600000E-01 
 1.800000E-01  2.000000E-01  2.200000E-01  2.400000E-01  2.600000E-01  2.800000E-01  3.000000E-01  3.200000E-01  3.400000E-01  3.600000E-01 
 3.800000E-01  4.000000E-01  4.200000E-01  4.400000E-01  4.600000E-01  4.800000E-01  5.000000E-01  5.200000E-01  5.400000E-01  5.600000E-01 
 5.800000E-01  6.000000E-01  6.200000E-01  6.400000E-01  6.600000E-01  6.800000E-01  7.000000E-01  7.200000E-01  7.400000E-01  7.600000E-01 
 7.800000E-01  8.000000E-01  8.200000E-01  8.400000E-01  8.600000E-01  8.800000E-01  9.000000E-01  9.200000E-01  9.400000E-01  9.600000E-01 
 9.800000E-01  1.000000E+00  0.000000E+00  2.000000E-02  4.000000E-02  6.000000E-02  8.000000E-02  1.000000E-01  1.200000E-01  1.400000E-01 
 1.600000E-01  1.800000E-01  2.000000E-01  2.200000E-01  2.400000E-01  2.600000E-01  2.800000E-01  3.000000E-01  3.200000E-01  3.400000E-01 
 3.600000E-01  3.800000E-01  4.000000E-01  4.200000E-01  4.400000E-01  4.600000E-01  4.800000E-01  5.000000E-01  5.200000E-01  5.400000E-01 
 5.600000E-01  5.800000E-01  6.000000E-01  6.200000E-01  6.400000E-01  6.600000E-01  6.800000E-01  7.000000E-01  7.200000E-01  7.400000E-01 
 7.600000E-01  7.800000E-01  8.000000E-01  8.200000E-01  8.400000E-01  8.600000E-01  8.800000E-01  9.000000E-01  9.200000E-01  9.400000E-01 
 9.600000E-01  9.800000E-01  1.000000E+00  0.000000E+00  2.000000E-02  4.000000E-02  6.000000E-02  8.000000E-02  1.000000E-01  1.200000E-01 
 1.400000E-01  1.600000E-01  1.800000E-01  2.000000E-01  2.200000E-01  2.400000E-01  2.600000E-01  2.800000E-01  3.000000E-01  3.200000E-01 
 3.400000E-01  3.600000E-01  3.800000E-01  4.000000E-01  4.200000E-01  4.400000E-01  4.600000E-01  4.800000E-01  5.000000E-01  5.200000E-01 
 5.400000E-01  5.600000E-01  5.800000E-01  6.000000E-01  6.200000E-01  6.400000E-01  6.600000E-01  6.800000E-01  7.000000E-01  7.200000E-01 
 7.400000E-01  7.600000E-01  7.800000E-01  8.000000E-01  8.200000E-01  8.400000E-01  8.600000E-01  8.800000E-01  9.000000E-01  9.200000E-01 
 9.400000E-01  9.600000E-01  9.800000E-01  1.000000E+00  0.000000E+00  2.000000E-02  4.000000E-02  6.000000E-02  8.000000E-02  1.000000E-01 
 1.200000E-01  1.400000E-01  1.600000E-01  1.800000E-01  2.000000E-01  2.200000E-01  2.400000E-01  2.600000E-01  2.800000E-01  3.000000E-01 
 3.200000E-01  3.400000E-01  3.600000E-01  3.800000E-01  4.000000E-01  4.200000E-01  4.400000E-01  4.600000E-01  4.800000E-01  5.000000E-01 
 5.200000E-01  5.400000E-01  5.600000E-01  5.800000E-01  6.000000E-01  6.200000E-01  6.400000E-01  6.600000E-01  6.800000E-01  7.000000E-01 
 7.200000E-01  7.400000E-01  7.600000E-01  7.800000E-01  8.000000E-01  8.200000E-01  8.400000E-01  8.600000E-01  8.800000E-01  9.000000E-01 
 9.200000E-01  9.400000E-01  9.600000E-01  9.800000E-01  1.000000E+00  0.000000E+00  2.000000E-02  4.000000E-02  6.000000E-02  8.000000E-02 
 1.000000E-01  1.200000E-01  1.400000E-01  1.600000E-01  1.800000E-01  2.000000E-01  2.200000E-01  2.400000E-01  2.600000E-01  2.800000E-01 
 3.000000E-01  3.200000E-01  3.400000E-01  3.600000E-01  3.800000E-01  4.000000E-01  4.200000E-01  4.400000E-01  4.600000E-01  4.800000E-01 
 5.000000E-01  5.200000E-01  5.400000E-01  5.600000E-01  5.800000E-01  6.000000E-01  6.200000E-01  6.400000E-01  6.600000E-01  6.800000E-01 
 7.000000E-01  7.200000E-01  7.400000E-01  7.600000E-01  7.800000E-01  8.000000E-01  8.200000E-01  8.400000E-01  8.600000E-01  8.800000E-01 
 9.000000E-01  9.200000E-01  9.400000E-01  9.600000E-01  9.800000E-01  1.000000E+00  0.000000E+00  2.000000E-02  4.000000E-02  6.000000E-02 
 8.000000E-02  1.000000E-01  1.200000E-01  1.400000E-01  1.600000E-01  1.800000E-01  2.000000E-01  2.200000E-01  2.400000E-01  2.600000E-01 
 2.800000E-01  3.000000E-01  3.200000E-01  3.400000E-01  3.600000E-01  3.800000E-01  4.000000E-01  4.200000E-01  4.400000E-01  4.600000E-01 
 4.800000E-01  5.000000E-01  5.200000E-01  5.400000E-01  5.600000E-01  5.800000E-01  6.000000E-01  6.200000E-01  6.400000E-01  6.600000E-01 
 6.800000E-01  7.000000E-01  7.200000E-01  7.400000E-01  7.600000E-01  7.800000E-01  8.000000E-01  8.200000E-01  8.400000E-01  8.600000E-01 
 8.800000E-01  9.000000E-01  9.200000E-01  9.400000E-01  9.600000E-01  9.800000E-01  1.000000E+00  0.000000E+00  2.000000E-02  4.000000E-02 
 6.000000E-02  8.000000E-02  1.000000E-01  1.200000E-01  1.400000E-01  1.600000E-01  1.800000E-01  2.000000E-01  2.200000E-01  2.400000E-01 
 2.600000E-01  2.800000E-01  3.000000E-01  3.200000E-01  3.400000E-01  3.600000E-01  3.800000E-01  4.000000E-01  4.200000E-01  4.400000E-01 
 4.600000E-01  4.800000E-01  5.000000E-01  5.200000E-01  5.400000E-01  5.600000E-01  5.800000E-01  6.000000E-01  6.200000E-01  6.400000E-01 
 6.600000E-01  6.800000E-01  7.000000E-01  7.200000E-01  7.400000E-01  7.600000E-01  7.800000E-01  8.000000E-01  8.200000E-01  8.400000E-01 
 8.600000E-01  8.800000E-01  9.000000E-01  9.200000E-01  9.400000E-01  9.600000E-01  9.800000E-01  1.000000E+00  0.000000E+00  2.000000E-02 
 4.000000E-02  6.000000E-02  8.000000E-02  1.000000E-01  1.200000E-01  1.400000E-01  1.600000E-01  1.800000E-01  2.000000E-01  2.200000E-01 
 2.400000E-01  2.600000E-01  2.800000E-01  3.000000E-01  3.200000E-01  3.400000E-01  3.600000E-01  3.800000E-01  4.000000E-01  4.200000E-01 
 4.400000E-01  4.600000E-01  4.800000E-01  5.000000E-01  5.200000E-01  5.400000E-01  5.600000E-01  5.800000E-01  6.000000E-01  6.200000E-01 
 6.400000E-01  6.600000E-01  6.800000E-01  7.000000E-01  7.200000E-01  7.400000E-01  7.600000E-01  7.800000E-01  8.000000E-01  8.200000E-01 
 8.400000E-01  8.600000E-01  8.800000E-01  9.000000E-01  9.200000E-01  9.400000E-01  9.600000E-01  9.800000E-01  1.000000E+00  0.000000E+00 
 2.000000E-02  4.000000E-02  6.000000E-02  8.000000E-02  1.000000E-01  1.200000E-01  1.400000E-01  1.600000E-01  1.800000E-01  2.000000E-01 
 2.200000E-01  2.400000E-01  2.600000E-01  2.800000E-01  3.000000E-01  3.200000E-01  3.400000E-01  3.600000E-01  3.800000E-01  4.000000E-01 
 4.200000E-01  4.400000E-01  4.600000E-01  4.800000E-01  5.000000E-01  5.200000E-01  5.400000E-01  5.600000E-01  5.800000E-01  6.000000E-01 
 6.200000E-01  6.400000E-01  6.600000E-01  6.800000E-01  7.000000E-01  7.200000E-01  7.400000E-01  7.600000E-01  7.800000E-01  8.000000E-01 
 8.200000E-01  8.400000E-01  8.600000E-01  8.800000E-01  9.000000E-01  9.200000E-01  9.400000E-01  9.600000E-01  9.800000E-01  1.000000E+00 
 0.000000E+00  2.000000E-02  4.000000E-02  6.000000E-02  8.000000E-02  1.000000E-01  1.200000E-01  1.400000E-01  1.600000E-01  1.800000E-01 
 2.000000E-01  2.200000E-01  2.400000E-01  2.600000E-01  2.800000E-01  3.000000E-01  3.200000E-01  3.400000E-01  3.600000E-01  3.800000E-01 
 4.000000E-01  4.200000E-01  4.400000E-01  4.600000E-01  4.800000E-01  5.000000E-01  5.200000E-01  5.400000E-01  5.600000E-01  5.800000E-01 
 6.000000E-01  6.200000E-01  6.400000E-01  6.600000E-01  6.800000E-01  7.000000E-01  7.200000E-01  7.400000E-01  7.600000E-01  7.800000E-01 
 8.000000E-01  8.200000E-01  8.400000E-01  8.600000E-01  8.800000E-01  9.000000E-01  9.200000E-01  9.400000E-01  9.600000E-01  9.800000E-01 
 1.000000E+00  0.000000E+00  2.000000E-02  4.000000E-02  6.000000E-02  8.000000E-02  1.000000E-01  1.200000E-01  1.400000E-01  1.600000E-01 
 1.800000E-01  2.000000E-01  2.200000E-01  2.400000E-01  2.600000E-01  2.800000E-01  3.000000E-01  3.200000E-01  3.400000E-01  3.600000E-01 
 3.800000E-01  4.000000E-01  4.200000E-01  4.400000E-01  4.600000E-01  4.800000E-01  5.000000E-01  5.200000E-01  5.400000E-01  5.600000E-01 
 5.800000E-01  6.000000E-01  6.200000E-01  6.400000E-01  6.600000E-01  6.800000E-01  7.000000E-01  7.200000E-01  7.400000E-01  7.600000E-01 
 7.800000E-01  8.000000E-01  8.200000E-01  8.400000E-01  8.600000E-01  8.800000E-01  9.000000E-01  9.200000E-01  9.400000E-01  9.600000E-01 
 9.800000E-01  1.000000E+00  0.000000E+00  2.000000E-02  4.000000E-02  6.000000E-02  8.000000E-02  1.000000E-01  1.200000E-01  1.400000E-01 
 1.600000E-01  1.800000E-01  2.000000E-01  2.200000E-01  2.400000E-01  2.600000E-01  2.800000E-01  3.000000E-01  3.200000E-01  3.400000E-01 
 3.600000E-01  3.800000E-01  4.000000E-01  4.200000E-01  4.400000E-01  4.600000E-01  4.800000E-01  5.000000E-01  5.200000E-01  5.400000E-01 
 5.600000E-01  5.800000E-01  6.000000E-01  6.200000E-01  6.400000E-01  6.600000E-01  6.800000E-01  7.000000E-01  7.200000E-01  7.400000E-01 
 7.600000E-01  7.800000E-01  8.000000E-01  8.200000E-01  8.400000E-01  8.600000E-01  8.800000E-01  9.000000E-01  9.200000E-01  9.400000E-01 
 9.600000E-01  9.800000E-01  1.000000E+00  0.000000E+00  2.000000E-02  4.000000E-02  6.000000E-02  8.000000E-02  1.000000E-01  1.200000E-01 
 1.400000E-01  1.600000E-01  1.800000E-01  2.000000E-01  2.200000E-01  2.400000E-01  2.600000E-01  2.800000E-01  3.000000E-01  3.200000E-01 
 3.400000E-01  3.600000E-01  3.800000E-01  4.000000E-01  4.200000E-01  4.400000E-01  4.600000E-01  4.800000E-01  5.000000E-01  5.200000E-01 
 5.400000E-01  5.600000E-01  5.800000E-01  6.000000E-01  6.200000E-01  6.400000E-01  6.600000E-01  6.800000E-01  7.000000E-01  7.200000E-01 
 7.400000E-01  7.600000E-01  7.800000E-01  8.000000E-01  8.200000E-01  8.400000E-01  8.600000E-01  8.800000E-01  9.000000E-01  9.200000E-01 
 9.400000E-01  9.600000E-01  9.800000E-01  1.000000E+00  0.000000E+00  2.000000E-02  4.000000E-02  6.000000E-02  8.000000E-02  1.000000E-01 
 1.200000E-01  1.400000E-01  1.600000E-01  1.800000E-01  2.000000E-01  2.200000E-01  2.400000E-01  2.600000E-01  2.800000E-01  3.000000E-01 
 3.200000E-01  3.400000E-01  3.600000E-01  3.800000E-01  4.000000E-01  4.200000E-01  4.400000E-01  4.600000E-01  4.800000E-01  5.000000E-01 
 5.200000E-01  5.400000E-01  5.600000E-01  5.800000E-01  6.000000E-01  6.200000E-01  6.400000E-01  6.600000E-01  6.800000E-01  7.000000E-01 
 7.200000E-01  7.400000E-01  7.600000E-01  7.800000E-01  8.000000E-01  8.200000E-01  8.400000E-01  8.600000E-01  8.800000E-01  9.000000E-01 
 9.200000E-01  9.400000E-01  9.600000E-01  9.800000E-01  1.000000E+00  0.000000E+00  2.000000E-02  4.000000E-02  6.000000E-02  8.000000E-02 
 1.000000E-01  1.200000E-01  1.400000E-01  1.600000E-01  1.800000E-01  2.000000E-01  2.200000E-01  2.400000E-01  2.600000E-01  2.800000E-01 
 3.000000E-01  3.200000E-01  3.400000E-01  3.600000E-01  3.800000E-01  4.000000E-01  4.200000E-01  4.400000E-01  4.600000E-01  4.800000E-01 
 5.000000E-01  5.200000E-01  5.400000E-01  5.600000E-01  5.800000E-01  6.000000E-01  6.200000E-01  6.400000E-01  6.600000E-01  6.800000E-01 
 7.000000E-01  7.200000E-01  7.400000E-01  7.600000E-01  7.800000E-01  8.000000E-01  8.200000E-01  8.400000E-01  8.600000E-01  8.800000E-01 
 9.000000E-01  9.200000E-01  9.400000E-01  9.600000E-01  9.800000E-01  1.000000E+00  0.000000E+00  2.000000E-02  4.000000E-02  6.000000E-02 
 8.000000E-02  1.000000E-01  1.200000E-01  1.400000E-01  1.600000E-01  1.800000E-01  2.000000E-01  2.200000E-01  2.400000E-01  2.600000E-01 
 2.800000E-01  3.000000E-01  3.200000E-01  3.400000E-01  3.600000E-01  3.800000E-01  4.000000E-01  4.200000E-01  4.400000E-01  4.600000E-01 
 4.800000E-01  5.000000E-01  5.200000E-01  5.400000E-01  5.600000E-01  5.800000E-01  6.000000E-01  6.200000E-01  6.400000E-01  6.600000E-01 
 6.800000E-01  7.000000E-01  7.200000E-01  7.400000E-01  7.600000E-01  7.800000E-01  8.000000E-01  8.200000E-01  8.400000E-01  8.600000E-01 
 8.800000E-01  9.000000E-01  9.200000E-01  9.400000E-01  9.600000E-01  9.800000E-01  1.000000E+00  0.000000E+00  2.000000E-02  4.000000E-02 
 6.000000E-02  8.000000E-02  1.000000E-01  1.200000E-01  1.400000E-01  1.600000E-01  1.800000E-01  2.000000E-01  2.200000E-01  2.400000E-01 
 2.600000E-01  2.800000E-01  3.000000E-01  3.200000E-01  3.400000E-01  3.600000E-01  3.800000E-01  4.000000E-01  4.200000E-01  4.400000E-01 
 4.600000E-01  4.800000E-01  5.000000E-01  5.200000E-01  5.400000E-01  5.600000E-01  5.800000E-01  6.000000E-01  6.200000E-01  6.400000E-01 
 6.600000E-01  6.800000E-01  7.000000E-01  7.200000E-01  7.400000E-01  7.600000E-01  7.800000E-01  8.000000E-01  8.200000E-01  8.400000E-01 
 8.600000E-01  8.800000E-01  9.000000E-01  9.200000E-01  9.400000E-01  9.600000E-01  9.800000E-01  1.000000E+00  0.000000E+00  2.000000E-02 
 4.000000E-02  6.000000E-02  8.000000E-02  1.000000E-01  1.200000E-01  1.400000E-01  1.600000E-01  1.800000E-01  2.000000E-01  2.200000E-01 
 2.400000E-01  2.600000E-01  2.800000E-01  3.000000E-01  3.200000E-01  3.400000E-01  3.600000E-01  3.800000E-01  4.000000E-01  4.200000E-01 
 4.400000E-01  4.600000E-01  4.800000E-01  5.000000E-01  5.200000E-01  5.400000E-01  5.600000E-01  5.800000E-01  6.000000E-01  6.200000E-01 
 6.400000E-01  6.600000E-01  6.800000E-01  7.000000E-01  7.200000E-01  7.400000E-01  7.600000E-01  7.800000E-01  8.000000E-01  8.200000E-01 
 8.400000E-01  8.600000E-01  8.800000E-01  9.000000E-01  9.200000E-01  9.400000E-01  9.600000E-01  9.800000E-01  1.000000E+00  0.000000E+00 
 2.000000E-02  4.000000E-02  6.000000E-02  8.000000E-02  1.000000E-01  1.200000E-01  1.400000E-01  1.600000E-01  1.800000E-01  2.000000E-01 
 2.200000E-01  2.400000E-01  2.600000E-01  2.800000E-01  3.000000E-01  3.200000E-01  3.400000E-01  3.600000E-01  3.800000E-01  4.000000E-01 
 4.200000E-01  4.400000E-01  4.600000E-01  4.800000E-01  5.000000E-01  5.200000E-01  5.400000E-01  5.600000E-01  5.800000E-01  6.000000E-01 
 6.200000E-01  6.400000E-01  6.600000E-01  6.800000E-01  7.000000E-01  7.200000E-01  7.400000E-01  7.600000E-01  7.800000E-01  8.000000E-01 
 8.200000E-01  8.400000E-01  8.600000E-01  8.800000E-01  9.000000E-01  9.200000E-01  9.400000E-01  9.600000E-01  9.800000E-01  1.000000E+00 