TITLE = "  5.60000E+02 [h]"
VARIABLES="X [m]","Y [m]","Z [m]","qlx [m/h]","qly [m/h]","qlz [m/h]","qgx [m/h]","qgy [m/h]","qgz [m/h]","Material_ID"
ZONE T="5.60000E+02", STRANDID=1, SOLUTIONTIME=5.60000E+02, I=2, J=2, K=101, VARLOCATION=([4-10]=CELLCENTERED), DATAPACKING=BLOCK
 0.000000E+00  1.350000E-01  0.000000E+00  1.350000E-01  0.000000E+00  1.350000E-01  0.000000E+00  1.350000E-01  0.000000E+00  1.350000E-01 
 0.000000E+00  1.350000E-01  0.000000E+00  1.350000E-01  0.000000E+00  1.350000E-01  0.000000E+00  1.350000E-01  0.000000E+00  1.350000E-01 
 0.000000E+00  1.350000E-01  0.000000E+00  1.350000E-01  0.000000E+00  1.350000E-01  0.000000E+00  1.350000E-01  0.000000E+00  1.350000E-01 
 0.000000E+00  1.350000E-01  0.000000E+00  1.350000E-01  0.000000E+00  1.350000E-01  0.000000E+00  1.350000E-01  0.000000E+00  1.350000E-01 
 0.000000E+00  1.350000E-01  0.000000E+00  1.350000E-01  0.000000E+00  1.350000E-01  0.000000E+00  1.350000E-01  0.000000E+00  1.350000E-01 
 0.000000E+00  1.350000E-01  0.000000E+00  1.350000E-01  0.000000E+00  1.350000E-01  0.000000E+00  1.350000E-01  0.000000E+00  1.350000E-01 
 0.000000E+00  1.350000E-01  0.000000E+00  1.350000E-01  0.000000E+00  1.350000E-01  0.000000E+00  1.350000E-01  0.000000E+00  1.350000E-01 
 0.000000E+00  1.350000E-01  0.000000E+00  1.350000E-01  0.000000E+00  1.350000E-01  0.000000E+00  1.350000E-01  0.000000E+00  1.350000E-01 
 0.000000E+00  1.350000E-01  0.000000E+00  1.350000E-01  0.000000E+00  1.350000E-01  0.000000E+00  1.350000E-01  0.000000E+00  1.350000E-01 
 0.000000E+00  1.350000E-01  0.000000E+00  1.350000E-01  0.000000E+00  1.350000E-01  0.000000E+00  1.350000E-01  0.000000E+00  1.350000E-01 
 0.000000E+00  1.350000E-01  0.000000E+00  1.350000E-01  0.000000E+00  1.350000E-01  0.000000E+00  1.350000E-01  0.000000E+00  1.350000E-01 
 0.000000E+00  1.350000E-01  0.000000E+00  1.350000E-01  0.000000E+00  1.350000E-01  0.000000E+00  1.350000E-01  0.000000E+00  1.350000E-01 
 0.000000E+00  1.350000E-01  0.000000E+00  1.350000E-01  0.000000E+00  1.350000E-01  0.000000E+00  1.350000E-01  0.000000E+00  1.350000E-01 
 0.000000E+00  1.350000E-01  0.000000E+00  1.350000E-01  0.000000E+00  1.350000E-01  0.000000E+00  1.350000E-01  0.000000E+00  1.350000E-01 
 0.000000E+00  1.350000E-01  0.000000E+00  1.350000E-01  0.000000E+00  1.350000E-01  0.000000E+00  1.350000E-01  0.000000E+00  1.350000E-01 
 0.000000E+00  1.350000E-01  0.000000E+00  1.350000E-01  0.000000E+00  1.350000E-01  0.000000E+00  1.350000E-01  0.000000E+00  1.350000E-01 
 0.000000E+00  1.350000E-01  0.000000E+00  1.350000E-01  0.000000E+00  1.350000E-01  0.000000E+00  1.350000E-01  0.000000E+00  1.350000E-01 
 0.000000E+00  1.350000E-01  0.000000E+00  1.350000E-01  0.000000E+00  1.350000E-01  0.000000E+00  1.350000E-01  0.000000E+00  1.350000E-01 
 0.000000E+00  1.350000E-01  0.000000E+00  1.350000E-01  0.000000E+00  1.350000E-01  0.000000E+00  1.350000E-01  0.000000E+00  1.350000E-01 
 0.000000E+00  1.350000E-01  0.000000E+00  1.350000E-01  0.000000E+00  1.350000E-01  0.000000E+00  1.350000E-01  0.000000E+00  1.350000E-01 
 0.000000E+00  1.350000E-01  0.000000E+00  1.350000E-01  0.000000E+00  1.350000E-01  0.000000E+00  1.350000E-01  0.000000E+00  1.350000E-01 
 0.000000E+00  1.350000E-01  0.000000E+00  1.350000E-01  0.000000E+00  1.350000E-01  0.000000E+00  1.350000E-01  0.000000E+00  1.350000E-01 
 0.000000E+00  1.350000E-01  0.000000E+00  1.350000E-01  0.000000E+00  1.350000E-01  0.000000E+00  1.350000E-01  0.000000E+00  1.350000E-01 
 0.000000E+00  1.350000E-01  0.000000E+00  1.350000E-01  0.000000E+00  1.350000E-01  0.000000E+00  1.350000E-01  0.000000E+00  1.350000E-01 
 0.000000E+00  1.350000E-01  0.000000E+00  1.350000E-01  0.000000E+00  1.350000E-01  0.000000E+00  1.350000E-01  0.000000E+00  1.350000E-01 
 0.000000E+00  1.350000E-01  0.000000E+00  1.350000E-01  0.000000E+00  1.350000E-01  0.000000E+00  1.350000E-01  0.000000E+00  1.350000E-01 
 0.000000E+00  1.350000E-01  0.000000E+00  1.350000E-01  0.000000E+00  1.350000E-01  0.000000E+00  1.350000E-01  0.000000E+00  1.350000E-01 
 0.000000E+00  1.350000E-01  0.000000E+00  1.350000E-01  0.000000E+00  1.350000E-01  0.000000E+00  1.350000E-01  0.000000E+00  1.350000E-01 
 0.000000E+00  1.350000E-01  0.000000E+00  1.350000E-01  0.000000E+00  1.350000E-01  0.000000E+00  1.350000E-01  0.000000E+00  1.350000E-01 
 0.000000E+00  1.350000E-01  0.000000E+00  1.350000E-01  0.000000E+00  1.350000E-01  0.000000E+00  1.350000E-01  0.000000E+00  1.350000E-01 
 0.000000E+00  1.350000E-01  0.000000E+00  1.350000E-01  0.000000E+00  1.350000E-01  0.000000E+00  1.350000E-01  0.000000E+00  1.350000E-01 
 0.000000E+00  1.350000E-01  0.000000E+00  1.350000E-01  0.000000E+00  1.350000E-01  0.000000E+00  1.350000E-01  0.000000E+00  1.350000E-01 
 0.000000E+00  1.350000E-01  0.000000E+00  1.350000E-01  0.000000E+00  1.350000E-01  0.000000E+00  1.350000E-01  0.000000E+00  1.350000E-01 
 0.000000E+00  1.350000E-01  0.000000E+00  1.350000E-01  0.000000E+00  1.350000E-01  0.000000E+00  1.350000E-01  0.000000E+00  1.350000E-01 
 0.000000E+00  1.350000E-01  0.000000E+00  1.350000E-01  0.000000E+00  1.350000E-01  0.000000E+00  1.350000E-01  0.000000E+00  1.350000E-01 
 0.000000E+00  1.350000E-01  0.000000E+00  1.350000E-01  0.000000E+00  1.350000E-01  0.000000E+00  1.350000E-01  0.000000E+00  1.350000E-01 
 0.000000E+00  1.350000E-01  0.000000E+00  1.350000E-01  0.000000E+00  1.350000E-01  0.000000E+00  1.350000E-01  0.000000E+00  1.350000E-01 
 0.000000E+00  1.350000E-01  0.000000E+00  1.350000E-01  0.000000E+00  1.350000E-01  0.000000E+00  1.350000E-01  0.000000E+00  1.350000E-01 
 0.000000E+00  1.350000E-01  0.000000E+00  1.350000E-01  0.000000E+00  1.350000E-01  0.000000E+00  1.350000E-01  0.000000E+00  1.350000E-01 
 0.000000E+00  1.350000E-01  0.000000E+00  1.350000E-01  0.000000E+00  1.350000E-01  0.000000E+00  1.350000E-01  0.000000E+00  1.350000E-01 
 0.000000E+00  1.350000E-01  0.000000E+00  1.350000E-01 
 0.000000E+00  0.000000E+00  1.350000E-01  1.350000E-01  0.000000E+00  0.000000E+00  1.350000E-01  1.350000E-01  0.000000E+00  0.000000E+00 
 1.350000E-01  1.350000E-01  0.000000E+00  0.000000E+00  1.350000E-01  1.350000E-01  0.000000E+00  0.000000E+00  1.350000E-01  1.350000E-01 
 0.000000E+00  0.000000E+00  1.350000E-01  1.350000E-01  0.000000E+00  0.000000E+00  1.350000E-01  1.350000E-01  0.000000E+00  0.000000E+00 
 1.350000E-01  1.350000E-01  0.000000E+00  0.000000E+00  1.350000E-01  1.350000E-01  0.000000E+00  0.000000E+00  1.350000E-01  1.350000E-01 
 0.000000E+00  0.000000E+00  1.350000E-01  1.350000E-01  0.000000E+00  0.000000E+00  1.350000E-01  1.350000E-01  0.000000E+00  0.000000E+00 
 1.350000E-01  1.350000E-01  0.000000E+00  0.000000E+00  1.350000E-01  1.350000E-01  0.000000E+00  0.000000E+00  1.350000E-01  1.350000E-01 
 0.000000E+00  0.000000E+00  1.350000E-01  1.350000E-01  0.000000E+00  0.000000E+00  1.350000E-01  1.350000E-01  0.000000E+00  0.000000E+00 
 1.350000E-01  1.350000E-01  0.000000E+00  0.000000E+00  1.350000E-01  1.350000E-01  0.000000E+00  0.000000E+00  1.350000E-01  1.350000E-01 
 0.000000E+00  0.000000E+00  1.350000E-01  1.350000E-01  0.000000E+00  0.000000E+00  1.350000E-01  1.350000E-01  0.000000E+00  0.000000E+00 
 1.350000E-01  1.350000E-01  0.000000E+00  0.000000E+00  1.350000E-01  1.350000E-01  0.000000E+00  0.000000E+00  1.350000E-01  1.350000E-01 
 0.000000E+00  0.000000E+00  1.350000E-01  1.350000E-01  0.000000E+00  0.000000E+00  1.350000E-01  1.350000E-01  0.000000E+00  0.000000E+00 
 1.350000E-01  1.350000E-01  0.000000E+00  0.000000E+00  1.350000E-01  1.350000E-01  0.000000E+00  0.000000E+00  1.350000E-01  1.350000E-01 
 0.000000E+00  0.000000E+00  1.350000E-01  1.350000E-01  0.000000E+00  0.000000E+00  1.350000E-01  1.350000E-01  0.000000E+00  0.000000E+00 
 1.350000E-01  1.350000E-01  0.000000E+00  0.000000E+00  1.350000E-01  1.350000E-01  0.000000E+00  0.000000E+00  1.350000E-01  1.350000E-01 
 0.000000E+00  0.000000E+00  1.350000E-01  1.350000E-01  0.000000E+00  0.000000E+00  1.350000E-01  1.350000E-01  0.000000E+00  0.000000E+00 
 1.350000E-01  1.350000E-01  0.000000E+00  0.000000E+00  1.350000E-01  1.350000E-01  0.000000E+00  0.000000E+00  1.350000E-01  1.350000E-01 
 0.000000E+00  0.000000E+00  1.350000E-01  1.350000E-01  0.000000E+00  0.000000E+00  1.350000E-01  1.350000E-01  0.000000E+00  0.000000E+00 
 1.350000E-01  1.350000E-01  0.000000E+00  0.000000E+00  1.350000E-01  1.350000E-01  0.000000E+00  0.000000E+00  1.350000E-01  1.350000E-01 
 0.000000E+00  0.000000E+00  1.350000E-01  1.350000E-01  0.000000E+00  0.000000E+00  1.350000E-01  1.350000E-01  0.000000E+00  0.000000E+00 
 1.350000E-01  1.350000E-01  0.000000E+00  0.000000E+00  1.350000E-01  1.350000E-01  0.000000E+00  0.000000E+00  1.350000E-01  1.350000E-01 
 0.000000E+00  0.000000E+00  1.350000E-01  1.350000E-01  0.000000E+00  0.000000E+00  1.350000E-01  1.350000E-01  0.000000E+00  0.000000E+00 
 1.350000E-01  1.350000E-01  0.000000E+00  0.000000E+00  1.350000E-01  1.350000E-01  0.000000E+00  0.000000E+00  1.350000E-01  1.350000E-01 
 0.000000E+00  0.000000E+00  1.350000E-01  1.350000E-01  0.000000E+00  0.000000E+00  1.350000E-01  1.350000E-01  0.000000E+00  0.000000E+00 
 1.350000E-01  1.350000E-01  0.000000E+00  0.000000E+00  1.350000E-01  1.350000E-01  0.000000E+00  0.000000E+00  1.350000E-01  1.350000E-01 
 0.000000E+00  0.000000E+00  1.350000E-01  1.350000E-01  0.000000E+00  0.000000E+00  1.350000E-01  1.350000E-01  0.000000E+00  0.000000E+00 
 1.350000E-01  1.350000E-01  0.000000E+00  0.000000E+00  1.350000E-01  1.350000E-01  0.000000E+00  0.000000E+00  1.350000E-01  1.350000E-01 
 0.000000E+00  0.000000E+00  1.350000E-01  1.350000E-01  0.000000E+00  0.000000E+00  1.350000E-01  1.350000E-01  0.000000E+00  0.000000E+00 
 1.350000E-01  1.350000E-01  0.000000E+00  0.000000E+00  1.350000E-01  1.350000E-01  0.000000E+00  0.000000E+00  1.350000E-01  1.350000E-01 
 0.000000E+00  0.000000E+00  1.350000E-01  1.350000E-01  0.000000E+00  0.000000E+00  1.350000E-01  1.350000E-01  0.000000E+00  0.000000E+00 
 1.350000E-01  1.350000E-01  0.000000E+00  0.000000E+00  1.350000E-01  1.350000E-01  0.000000E+00  0.000000E+00  1.350000E-01  1.350000E-01 
 0.000000E+00  0.000000E+00  1.350000E-01  1.350000E-01  0.000000E+00  0.000000E+00  1.350000E-01  1.350000E-01  0.000000E+00  0.000000E+00 
 1.350000E-01  1.350000E-01  0.000000E+00  0.000000E+00  1.350000E-01  1.350000E-01  0.000000E+00  0.000000E+00  1.350000E-01  1.350000E-01 
 0.000000E+00  0.000000E+00  1.350000E-01  1.350000E-01  0.000000E+00  0.000000E+00  1.350000E-01  1.350000E-01  0.000000E+00  0.000000E+00 
 1.350000E-01  1.350000E-01  0.000000E+00  0.000000E+00  1.350000E-01  1.350000E-01  0.000000E+00  0.000000E+00  1.350000E-01  1.350000E-01 
 0.000000E+00  0.000000E+00  1.350000E-01  1.350000E-01  0.000000E+00  0.000000E+00  1.350000E-01  1.350000E-01  0.000000E+00  0.000000E+00 
 1.350000E-01  1.350000E-01  0.000000E+00  0.000000E+00  1.350000E-01  1.350000E-01  0.000000E+00  0.000000E+00  1.350000E-01  1.350000E-01 
 0.000000E+00  0.000000E+00  1.350000E-01  1.350000E-01  0.000000E+00  0.000000E+00  1.350000E-01  1.350000E-01  0.000000E+00  0.000000E+00 
 1.350000E-01  1.350000E-01  0.000000E+00  0.000000E+00  1.350000E-01  1.350000E-01  0.000000E+00  0.000000E+00  1.350000E-01  1.350000E-01 
 0.000000E+00  0.000000E+00  1.350000E-01  1.350000E-01  0.000000E+00  0.000000E+00  1.350000E-01  1.350000E-01  0.000000E+00  0.000000E+00 
 1.350000E-01  1.350000E-01  0.000000E+00  0.000000E+00  1.350000E-01  1.350000E-01  0.000000E+00  0.000000E+00  1.350000E-01  1.350000E-01 
 0.000000E+00  0.000000E+00  1.350000E-01  1.350000E-01 
-3.000000E-01 -3.000000E-01 -3.000000E-01 -3.000000E-01 -2.970000E-01 -2.970000E-01 -2.970000E-01 -2.970000E-01 -2.940000E-01 -2.940000E-01 
-2.940000E-01 -2.940000E-01 -2.910000E-01 -2.910000E-01 -2.910000E-01 -2.910000E-01 -2.880000E-01 -2.880000E-01 -2.880000E-01 -2.880000E-01 
-2.850000E-01 -2.850000E-01 -2.850000E-01 -2.850000E-01 -2.820000E-01 -2.820000E-01 -2.820000E-01 -2.820000E-01 -2.790000E-01 -2.790000E-01 
-2.790000E-01 -2.790000E-01 -2.760000E-01 -2.760000E-01 -2.760000E-01 -2.760000E-01 -2.730000E-01 -2.730000E-01 -2.730000E-01 -2.730000E-01 
-2.700000E-01 -2.700000E-01 -2.700000E-01 -2.700000E-01 -2.670000E-01 -2.670000E-01 -2.670000E-01 -2.670000E-01 -2.640000E-01 -2.640000E-01 
-2.640000E-01 -2.640000E-01 -2.610000E-01 -2.610000E-01 -2.610000E-01 -2.610000E-01 -2.580000E-01 -2.580000E-01 -2.580000E-01 -2.580000E-01 
-2.550000E-01 -2.550000E-01 -2.550000E-01 -2.550000E-01 -2.520000E-01 -2.520000E-01 -2.520000E-01 -2.520000E-01 -2.490000E-01 -2.490000E-01 
-2.490000E-01 -2.490000E-01 -2.460000E-01 -2.460000E-01 -2.460000E-01 -2.460000E-01 -2.430000E-01 -2.430000E-01 -2.430000E-01 -2.430000E-01 
-2.400000E-01 -2.400000E-01 -2.400000E-01 -2.400000E-01 -2.370000E-01 -2.370000E-01 -2.370000E-01 -2.370000E-01 -2.340000E-01 -2.340000E-01 
-2.340000E-01 -2.340000E-01 -2.310000E-01 -2.310000E-01 -2.310000E-01 -2.310000E-01 -2.280000E-01 -2.280000E-01 -2.280000E-01 -2.280000E-01 
-2.250000E-01 -2.250000E-01 -2.250000E-01 -2.250000E-01 -2.220000E-01 -2.220000E-01 -2.220000E-01 -2.220000E-01 -2.190000E-01 -2.190000E-01 
-2.190000E-01 -2.190000E-01 -2.160000E-01 -2.160000E-01 -2.160000E-01 -2.160000E-01 -2.130000E-01 -2.130000E-01 -2.130000E-01 -2.130000E-01 
-2.100000E-01 -2.100000E-01 -2.100000E-01 -2.100000E-01 -2.070000E-01 -2.070000E-01 -2.070000E-01 -2.070000E-01 -2.040000E-01 -2.040000E-01 
-2.040000E-01 -2.040000E-01 -2.010000E-01 -2.010000E-01 -2.010000E-01 -2.010000E-01 -1.980000E-01 -1.980000E-01 -1.980000E-01 -1.980000E-01 
-1.950000E-01 -1.950000E-01 -1.950000E-01 -1.950000E-01 -1.920000E-01 -1.920000E-01 -1.920000E-01 -1.920000E-01 -1.890000E-01 -1.890000E-01 
-1.890000E-01 -1.890000E-01 -1.860000E-01 -1.860000E-01 -1.860000E-01 -1.860000E-01 -1.830000E-01 -1.830000E-01 -1.830000E-01 -1.830000E-01 
-1.800000E-01 -1.800000E-01 -1.800000E-01 -1.800000E-01 -1.770000E-01 -1.770000E-01 -1.770000E-01 -1.770000E-01 -1.740000E-01 -1.740000E-01 
-1.740000E-01 -1.740000E-01 -1.710000E-01 -1.710000E-01 -1.710000E-01 -1.710000E-01 -1.680000E-01 -1.680000E-01 -1.680000E-01 -1.680000E-01 
-1.650000E-01 -1.650000E-01 -1.650000E-01 -1.650000E-01 -1.620000E-01 -1.620000E-01 -1.620000E-01 -1.620000E-01 -1.590000E-01 -1.590000E-01 
-1.590000E-01 -1.590000E-01 -1.560000E-01 -1.560000E-01 -1.560000E-01 -1.560000E-01 -1.530000E-01 -1.530000E-01 -1.530000E-01 -1.530000E-01 
-1.500000E-01 -1.500000E-01 -1.500000E-01 -1.500000E-01 -1.470000E-01 -1.470000E-01 -1.470000E-01 -1.470000E-01 -1.440000E-01 -1.440000E-01 
-1.440000E-01 -1.440000E-01 -1.410000E-01 -1.410000E-01 -1.410000E-01 -1.410000E-01 -1.380000E-01 -1.380000E-01 -1.380000E-01 -1.380000E-01 
-1.350000E-01 -1.350000E-01 -1.350000E-01 -1.350000E-01 -1.320000E-01 -1.320000E-01 -1.320000E-01 -1.320000E-01 -1.290000E-01 -1.290000E-01 
-1.290000E-01 -1.290000E-01 -1.260000E-01 -1.260000E-01 -1.260000E-01 -1.260000E-01 -1.230000E-01 -1.230000E-01 -1.230000E-01 -1.230000E-01 
-1.200000E-01 -1.200000E-01 -1.200000E-01 -1.200000E-01 -1.170000E-01 -1.170000E-01 -1.170000E-01 -1.170000E-01 -1.140000E-01 -1.140000E-01 
-1.140000E-01 -1.140000E-01 -1.110000E-01 -1.110000E-01 -1.110000E-01 -1.110000E-01 -1.080000E-01 -1.080000E-01 -1.080000E-01 -1.080000E-01 
-1.050000E-01 -1.050000E-01 -1.050000E-01 -1.050000E-01 -1.020000E-01 -1.020000E-01 -1.020000E-01 -1.020000E-01 -9.900000E-02 -9.900000E-02 
-9.900000E-02 -9.900000E-02 -9.600000E-02 -9.600000E-02 -9.600000E-02 -9.600000E-02 -9.300000E-02 -9.300000E-02 -9.300000E-02 -9.300000E-02 
-9.000000E-02 -9.000000E-02 -9.000000E-02 -9.000000E-02 -8.700000E-02 -8.700000E-02 -8.700000E-02 -8.700000E-02 -8.400000E-02 -8.400000E-02 
-8.400000E-02 -8.400000E-02 -8.100000E-02 -8.100000E-02 -8.100000E-02 -8.100000E-02 -7.800000E-02 -7.800000E-02 -7.800000E-02 -7.800000E-02 
-7.500000E-02 -7.500000E-02 -7.500000E-02 -7.500000E-02 -7.200000E-02 -7.200000E-02 -7.200000E-02 -7.200000E-02 -6.900000E-02 -6.900000E-02 
-6.900000E-02 -6.900000E-02 -6.600000E-02 -6.600000E-02 -6.600000E-02 -6.600000E-02 -6.300000E-02 -6.300000E-02 -6.300000E-02 -6.300000E-02 
-6.000000E-02 -6.000000E-02 -6.000000E-02 -6.000000E-02 -5.700000E-02 -5.700000E-02 -5.700000E-02 -5.700000E-02 -5.400000E-02 -5.400000E-02 
-5.400000E-02 -5.400000E-02 -5.100000E-02 -5.100000E-02 -5.100000E-02 -5.100000E-02 -4.800000E-02 -4.800000E-02 -4.800000E-02 -4.800000E-02 
-4.500000E-02 -4.500000E-02 -4.500000E-02 -4.500000E-02 -4.200000E-02 -4.200000E-02 -4.200000E-02 -4.200000E-02 -3.900000E-02 -3.900000E-02 
-3.900000E-02 -3.900000E-02 -3.600000E-02 -3.600000E-02 -3.600000E-02 -3.600000E-02 -3.300000E-02 -3.300000E-02 -3.300000E-02 -3.300000E-02 
-3.000000E-02 -3.000000E-02 -3.000000E-02 -3.000000E-02 -2.700000E-02 -2.700000E-02 -2.700000E-02 -2.700000E-02 -2.400000E-02 -2.400000E-02 
-2.400000E-02 -2.400000E-02 -2.100000E-02 -2.100000E-02 -2.100000E-02 -2.100000E-02 -1.800000E-02 -1.800000E-02 -1.800000E-02 -1.800000E-02 
-1.500000E-02 -1.500000E-02 -1.500000E-02 -1.500000E-02 -1.200000E-02 -1.200000E-02 -1.200000E-02 -1.200000E-02 -9.000000E-03 -9.000000E-03 
-9.000000E-03 -9.000000E-03 -6.000000E-03 -6.000000E-03 -6.000000E-03 -6.000000E-03 -3.000000E-03 -3.000000E-03 -3.000000E-03 -3.000000E-03 
 2.419939E-16  2.419939E-16  2.419939E-16  2.419939E-16 
 0.000000E+00  0.000000E+00  0.000000E+00  0.000000E+00  0.000000E+00  0.000000E+00  0.000000E+00  0.000000E+00  0.000000E+00  0.000000E+00
 0.000000E+00  0.000000E+00  0.000000E+00  0.000000E+00  0.000000E+00  0.000000E+00  0.000000E+00  0.000000E+00  0.000000E+00  0.000000E+00
 0.000000E+00  0.000000E+00  0.000000E+00  0.000000E+00  0.000000E+00  0.000000E+00  0.000000E+00  0.000000E+00  0.000000E+00  0.000000E+00
 0.000000E+00  0.000000E+00  0.000000E+00  0.000000E+00  0.000000E+00  0.000000E+00  0.000000E+00  0.000000E+00  0.000000E+00  0.000000E+00
 0.000000E+00  0.000000E+00  0.000000E+00  0.000000E+00  0.000000E+00  0.000000E+00  0.000000E+00  0.000000E+00  0.000000E+00  0.000000E+00
 0.000000E+00  0.000000E+00  0.000000E+00  0.000000E+00  0.000000E+00  0.000000E+00  0.000000E+00  0.000000E+00  0.000000E+00  0.000000E+00
 0.000000E+00  0.000000E+00  0.000000E+00  0.000000E+00  0.000000E+00  0.000000E+00  0.000000E+00  0.000000E+00  0.000000E+00  0.000000E+00
 0.000000E+00  0.000000E+00  0.000000E+00  0.000000E+00  0.000000E+00  0.000000E+00  0.000000E+00  0.000000E+00  0.000000E+00  0.000000E+00
 0.000000E+00  0.000000E+00  0.000000E+00  0.000000E+00  0.000000E+00  0.000000E+00  0.000000E+00  0.000000E+00  0.000000E+00  0.000000E+00
 0.000000E+00  0.000000E+00  0.000000E+00  0.000000E+00  0.000000E+00  0.000000E+00  0.000000E+00  0.000000E+00  0.000000E+00  0.000000E+00
 0.000000E+00  0.000000E+00  0.000000E+00  0.000000E+00  0.000000E+00  0.000000E+00  0.000000E+00  0.000000E+00  0.000000E+00  0.000000E+00
 0.000000E+00  0.000000E+00  0.000000E+00  0.000000E+00  0.000000E+00  0.000000E+00  0.000000E+00  0.000000E+00  0.000000E+00  0.000000E+00
 0.000000E+00  0.000000E+00  0.000000E+00  0.000000E+00  0.000000E+00  0.000000E+00  0.000000E+00  0.000000E+00  0.000000E+00  0.000000E+00
 0.000000E+00  0.000000E+00  0.000000E+00  0.000000E+00  0.000000E+00  0.000000E+00  0.000000E+00  0.000000E+00  0.000000E+00  0.000000E+00
 0.000000E+00  0.000000E+00  0.000000E+00  0.000000E+00  0.000000E+00  0.000000E+00  0.000000E+00  0.000000E+00  0.000000E+00  0.000000E+00
 0.000000E+00  0.000000E+00  0.000000E+00  0.000000E+00  0.000000E+00  0.000000E+00  0.000000E+00  0.000000E+00  0.000000E+00  0.000000E+00
 0.000000E+00  0.000000E+00  0.000000E+00  0.000000E+00  0.000000E+00  0.000000E+00  0.000000E+00  0.000000E+00  0.000000E+00  0.000000E+00
 0.000000E+00  0.000000E+00  0.000000E+00  0.000000E+00  0.000000E+00  0.000000E+00  0.000000E+00  0.000000E+00  0.000000E+00  0.000000E+00
 0.000000E+00  0.000000E+00  0.000000E+00  0.000000E+00  0.000000E+00  0.000000E+00  0.000000E+00  0.000000E+00  0.000000E+00  0.000000E+00
 0.000000E+00  0.000000E+00  0.000000E+00  0.000000E+00  0.000000E+00  0.000000E+00  0.000000E+00  0.000000E+00  0.000000E+00  0.000000E+00
-9.999938E-03 -9.999921E-03 -9.999925E-03 -9.999927E-03 -9.999928E-03 -9.999929E-03 -9.999930E-03 -9.999931E-03 -9.999932E-03 -9.999933E-03
-9.999935E-03 -9.999936E-03 -9.999937E-03 -9.999938E-03 -9.999940E-03 -9.999941E-03 -9.999942E-03 -9.999944E-03 -9.999945E-03 -9.999947E-03
-9.999948E-03 -9.999949E-03 -9.999951E-03 -9.999952E-03 -9.999954E-03 -9.999955E-03 -9.999956E-03 -9.999957E-03 -9.999959E-03 -9.999960E-03
-9.999961E-03 -9.999962E-03 -9.999963E-03 -9.999964E-03 -9.999965E-03 -9.999965E-03 -9.999966E-03 -9.999967E-03 -9.999968E-03 -9.999969E-03
-9.999969E-03 -9.999970E-03 -9.999971E-03 -9.999971E-03 -9.999972E-03 -9.999973E-03 -9.999973E-03 -9.999974E-03 -9.999975E-03 -9.999975E-03
-9.999976E-03 -9.999976E-03 -9.999977E-03 -9.999978E-03 -9.999978E-03 -9.999979E-03 -9.999979E-03 -9.999980E-03 -9.999980E-03 -9.999981E-03
-9.999981E-03 -9.999982E-03 -9.999983E-03 -9.999983E-03 -9.999984E-03 -9.999984E-03 -9.999985E-03 -9.999985E-03 -9.999986E-03 -9.999986E-03
-9.999987E-03 -9.999987E-03 -9.999988E-03 -9.999988E-03 -9.999989E-03 -9.999989E-03 -9.999990E-03 -9.999990E-03 -9.999990E-03 -9.999991E-03
-9.999991E-03 -9.999992E-03 -9.999992E-03 -9.999993E-03 -9.999993E-03 -9.999994E-03 -9.999994E-03 -9.999995E-03 -9.999995E-03 -9.999995E-03
-9.999996E-03 -9.999996E-03 -9.999997E-03 -9.999997E-03 -9.999998E-03 -9.999998E-03 -9.999999E-03 -9.999999E-03 -9.999999E-03 -6.666667E-03
 0.000000E+00  0.000000E+00  0.000000E+00  0.000000E+00  0.000000E+00  0.000000E+00  0.000000E+00  0.000000E+00  0.000000E+00  0.000000E+00
 0.000000E+00  0.000000E+00  0.000000E+00  0.000000E+00  0.000000E+00  0.000000E+00  0.000000E+00  0.000000E+00  0.000000E+00  0.000000E+00
 0.000000E+00  0.000000E+00  0.000000E+00  0.000000E+00  0.000000E+00  0.000000E+00  0.000000E+00  0.000000E+00  0.000000E+00  0.000000E+00
 0.000000E+00  0.000000E+00  0.000000E+00  0.000000E+00  0.000000E+00  0.000000E+00  0.000000E+00  0.000000E+00  0.000000E+00  0.000000E+00
 0.000000E+00  0.000000E+00  0.000000E+00  0.000000E+00  0.000000E+00  0.000000E+00  0.000000E+00  0.000000E+00  0.000000E+00  0.000000E+00
 0.000000E+00  0.000000E+00  0.000000E+00  0.000000E+00  0.000000E+00  0.000000E+00  0.000000E+00  0.000000E+00  0.000000E+00  0.000000E+00
 0.000000E+00  0.000000E+00  0.000000E+00  0.000000E+00  0.000000E+00  0.000000E+00  0.000000E+00  0.000000E+00  0.000000E+00  0.000000E+00
 0.000000E+00  0.000000E+00  0.000000E+00  0.000000E+00  0.000000E+00  0.000000E+00  0.000000E+00  0.000000E+00  0.000000E+00  0.000000E+00
 0.000000E+00  0.000000E+00  0.000000E+00  0.000000E+00  0.000000E+00  0.000000E+00  0.000000E+00  0.000000E+00  0.000000E+00  0.000000E+00
 0.000000E+00  0.000000E+00  0.000000E+00  0.000000E+00  0.000000E+00  0.000000E+00  0.000000E+00  0.000000E+00  0.000000E+00  0.000000E+00
 0.000000E+00  0.000000E+00  0.000000E+00  0.000000E+00  0.000000E+00  0.000000E+00  0.000000E+00  0.000000E+00  0.000000E+00  0.000000E+00
 0.000000E+00  0.000000E+00  0.000000E+00  0.000000E+00  0.000000E+00  0.000000E+00  0.000000E+00  0.000000E+00  0.000000E+00  0.000000E+00
 0.000000E+00  0.000000E+00  0.000000E+00  0.000000E+00  0.000000E+00  0.000000E+00  0.000000E+00  0.000000E+00  0.000000E+00  0.000000E+00
 0.000000E+00  0.000000E+00  0.000000E+00  0.000000E+00  0.000000E+00  0.000000E+00  0.000000E+00  0.000000E+00  0.000000E+00  0.000000E+00
 0.000000E+00  0.000000E+00  0.000000E+00  0.000000E+00  0.000000E+00  0.000000E+00  0.000000E+00  0.000000E+00  0.000000E+00  0.000000E+00
 0.000000E+00  0.000000E+00  0.000000E+00  0.000000E+00  0.000000E+00  0.000000E+00  0.000000E+00  0.000000E+00  0.000000E+00  0.000000E+00
 0.000000E+00  0.000000E+00  0.000000E+00  0.000000E+00  0.000000E+00  0.000000E+00  0.000000E+00  0.000000E+00  0.000000E+00  0.000000E+00
 0.000000E+00  0.000000E+00  0.000000E+00  0.000000E+00  0.000000E+00  0.000000E+00  0.000000E+00  0.000000E+00  0.000000E+00  0.000000E+00
 0.000000E+00  0.000000E+00  0.000000E+00  0.000000E+00  0.000000E+00  0.000000E+00  0.000000E+00  0.000000E+00  0.000000E+00  0.000000E+00
 0.000000E+00  0.000000E+00  0.000000E+00  0.000000E+00  0.000000E+00  0.000000E+00  0.000000E+00  0.000000E+00  0.000000E+00  0.000000E+00
-3.236058E-06 -3.235953E-06 -3.235808E-06 -3.235608E-06 -3.235356E-06 -3.235052E-06 -3.234699E-06 -3.234300E-06 -3.233854E-06 -3.233365E-06
-3.232833E-06 -3.232259E-06 -3.231644E-06 -3.230991E-06 -3.230299E-06 -3.229569E-06 -3.228804E-06 -3.458592E-06 -3.936479E-06 -4.427092E-06
-4.903442E-06 -5.348925E-06 -5.742549E-06 -6.067615E-06 -6.311620E-06 -6.468610E-06 -6.540306E-06 -6.535516E-06 -6.468023E-06 -6.353757E-06
-6.208201E-06 -6.044653E-06 -5.873480E-06 -5.702125E-06 -5.535532E-06 -5.376717E-06 -5.227305E-06 -5.087983E-06 -4.958828E-06 -4.839548E-06
-4.729641E-06 -4.628497E-06 -4.535466E-06 -4.449899E-06 -4.371172E-06 -4.298695E-06 -4.231923E-06 -4.170353E-06 -4.113526E-06 -4.061025E-06
-4.012472E-06 -3.967523E-06 -3.925867E-06 -3.887224E-06 -3.851338E-06 -3.817979E-06 -3.786938E-06 -3.758025E-06 -3.731070E-06 -3.705914E-06
-3.682415E-06 -3.660446E-06 -3.639887E-06 -3.620631E-06 -3.602580E-06 -3.585645E-06 -3.569742E-06 -3.554798E-06 -3.540742E-06 -3.527513E-06
-3.515052E-06 -3.503305E-06 -3.492225E-06 -3.481765E-06 -3.471883E-06 -3.462542E-06 -3.453706E-06 -3.445342E-06 -3.437421E-06 -3.429913E-06
-3.422793E-06 -3.416037E-06 -3.409624E-06 -3.403530E-06 -3.397740E-06 -3.392232E-06 -3.386990E-06 -3.382002E-06 -3.377250E-06 -3.372721E-06
-3.368404E-06 -3.364285E-06 -3.360357E-06 -3.356605E-06 -3.353021E-06 -3.349598E-06 -3.346326E-06 -3.343195E-06 -3.340202E-06 -7.514422E-06
 1  1  1  1  1  1  1  1  1  1
 1  1  1  1  1  1  1  1  1  1
 1  1  1  1  1  1  1  1  1  1
 1  1  1  1  1  1  1  1  1  1
 1  1  1  1  1  1  1  1  1  1
 1  1  1  1  1  1  1  1  1  1
 1  1  1  1  1  1  1  1  1  1
 1  1  1  1  1  1  1  1  1  1
 1  1  1  1  1  1  1  1  1  1
 1  1  1  1  1  1  1  1  1  1
