TITLE = "  3.95000E+02 [h]"
VARIABLES="X [m]","Y [m]","Z [m]","qlx [m/h]","qly [m/h]","qlz [m/h]","qgx [m/h]","qgy [m/h]","qgz [m/h]","Material_ID"
ZONE T="3.95000E+02", STRANDID=1, SOLUTIONTIME=3.95000E+02, I=2, J=2, K=101, VARLOCATION=([4-10]=CELLCENTERED), DATAPACKING=BLOCK
 0.000000E+00  1.350000E-01  0.000000E+00  1.350000E-01  0.000000E+00  1.350000E-01  0.000000E+00  1.350000E-01  0.000000E+00  1.350000E-01 
 0.000000E+00  1.350000E-01  0.000000E+00  1.350000E-01  0.000000E+00  1.350000E-01  0.000000E+00  1.350000E-01  0.000000E+00  1.350000E-01 
 0.000000E+00  1.350000E-01  0.000000E+00  1.350000E-01  0.000000E+00  1.350000E-01  0.000000E+00  1.350000E-01  0.000000E+00  1.350000E-01 
 0.000000E+00  1.350000E-01  0.000000E+00  1.350000E-01  0.000000E+00  1.350000E-01  0.000000E+00  1.350000E-01  0.000000E+00  1.350000E-01 
 0.000000E+00  1.350000E-01  0.000000E+00  1.350000E-01  0.000000E+00  1.350000E-01  0.000000E+00  1.350000E-01  0.000000E+00  1.350000E-01 
 0.000000E+00  1.350000E-01  0.000000E+00  1.350000E-01  0.000000E+00  1.350000E-01  0.000000E+00  1.350000E-01  0.000000E+00  1.350000E-01 
 0.000000E+00  1.350000E-01  0.000000E+00  1.350000E-01  0.000000E+00  1.350000E-01  0.000000E+00  1.350000E-01  0.000000E+00  1.350000E-01 
 0.000000E+00  1.350000E-01  0.000000E+00  1.350000E-01  0.000000E+00  1.350000E-01  0.000000E+00  1.350000E-01  0.000000E+00  1.350000E-01 
 0.000000E+00  1.350000E-01  0.000000E+00  1.350000E-01  0.000000E+00  1.350000E-01  0.000000E+00  1.350000E-01  0.000000E+00  1.350000E-01 
 0.000000E+00  1.350000E-01  0.000000E+00  1.350000E-01  0.000000E+00  1.350000E-01  0.000000E+00  1.350000E-01  0.000000E+00  1.350000E-01 
 0.000000E+00  1.350000E-01  0.000000E+00  1.350000E-01  0.000000E+00  1.350000E-01  0.000000E+00  1.350000E-01  0.000000E+00  1.350000E-01 
 0.000000E+00  1.350000E-01  0.000000E+00  1.350000E-01  0.000000E+00  1.350000E-01  0.000000E+00  1.350000E-01  0.000000E+00  1.350000E-01 
 0.000000E+00  1.350000E-01  0.000000E+00  1.350000E-01  0.000000E+00  1.350000E-01  0.000000E+00  1.350000E-01  0.000000E+00  1.350000E-01 
 0.000000E+00  1.350000E-01  0.000000E+00  1.350000E-01  0.000000E+00  1.350000E-01  0.000000E+00  1.350000E-01  0.000000E+00  1.350000E-01 
 0.000000E+00  1.350000E-01  0.000000E+00  1.350000E-01  0.000000E+00  1.350000E-01  0.000000E+00  1.350000E-01  0.000000E+00  1.350000E-01 
 0.000000E+00  1.350000E-01  0.000000E+00  1.350000E-01  0.000000E+00  1.350000E-01  0.000000E+00  1.350000E-01  0.000000E+00  1.350000E-01 
 0.000000E+00  1.350000E-01  0.000000E+00  1.350000E-01  0.000000E+00  1.350000E-01  0.000000E+00  1.350000E-01  0.000000E+00  1.350000E-01 
 0.000000E+00  1.350000E-01  0.000000E+00  1.350000E-01  0.000000E+00  1.350000E-01  0.000000E+00  1.350000E-01  0.000000E+00  1.350000E-01 
 0.000000E+00  1.350000E-01  0.000000E+00  1.350000E-01  0.000000E+00  1.350000E-01  0.000000E+00  1.350000E-01  0.000000E+00  1.350000E-01 
 0.000000E+00  1.350000E-01  0.000000E+00  1.350000E-01  0.000000E+00  1.350000E-01  0.000000E+00  1.350000E-01  0.000000E+00  1.350000E-01 
 0.000000E+00  1.350000E-01  0.000000E+00  1.350000E-01  0.000000E+00  1.350000E-01  0.000000E+00  1.350000E-01  0.000000E+00  1.350000E-01 
 0.000000E+00  1.350000E-01  0.000000E+00  1.350000E-01  0.000000E+00  1.350000E-01  0.000000E+00  1.350000E-01  0.000000E+00  1.350000E-01 
 0.000000E+00  1.350000E-01  0.000000E+00  1.350000E-01  0.000000E+00  1.350000E-01  0.000000E+00  1.350000E-01  0.000000E+00  1.350000E-01 
 0.000000E+00  1.350000E-01  0.000000E+00  1.350000E-01  0.000000E+00  1.350000E-01  0.000000E+00  1.350000E-01  0.000000E+00  1.350000E-01 
 0.000000E+00  1.350000E-01  0.000000E+00  1.350000E-01  0.000000E+00  1.350000E-01  0.000000E+00  1.350000E-01  0.000000E+00  1.350000E-01 
 0.000000E+00  1.350000E-01  0.000000E+00  1.350000E-01  0.000000E+00  1.350000E-01  0.000000E+00  1.350000E-01  0.000000E+00  1.350000E-01 
 0.000000E+00  1.350000E-01  0.000000E+00  1.350000E-01  0.000000E+00  1.350000E-01  0.000000E+00  1.350000E-01  0.000000E+00  1.350000E-01 
 0.000000E+00  1.350000E-01  0.000000E+00  1.350000E-01  0.000000E+00  1.350000E-01  0.000000E+00  1.350000E-01  0.000000E+00  1.350000E-01 
 0.000000E+00  1.350000E-01  0.000000E+00  1.350000E-01  0.000000E+00  1.350000E-01  0.000000E+00  1.350000E-01  0.000000E+00  1.350000E-01 
 0.000000E+00  1.350000E-01  0.000000E+00  1.350000E-01  0.000000E+00  1.350000E-01  0.000000E+00  1.350000E-01  0.000000E+00  1.350000E-01 
 0.000000E+00  1.350000E-01  0.000000E+00  1.350000E-01  0.000000E+00  1.350000E-01  0.000000E+00  1.350000E-01  0.000000E+00  1.350000E-01 
 0.000000E+00  1.350000E-01  0.000000E+00  1.350000E-01  0.000000E+00  1.350000E-01  0.000000E+00  1.350000E-01  0.000000E+00  1.350000E-01 
 0.000000E+00  1.350000E-01  0.000000E+00  1.350000E-01  0.000000E+00  1.350000E-01  0.000000E+00  1.350000E-01  0.000000E+00  1.350000E-01 
 0.000000E+00  1.350000E-01  0.000000E+00  1.350000E-01  0.000000E+00  1.350000E-01  0.000000E+00  1.350000E-01  0.000000E+00  1.350000E-01 
 0.000000E+00  1.350000E-01  0.000000E+00  1.350000E-01  0.000000E+00  1.350000E-01  0.000000E+00  1.350000E-01  0.000000E+00  1.350000E-01 
 0.000000E+00  1.350000E-01  0.000000E+00  1.350000E-01  0.000000E+00  1.350000E-01  0.000000E+00  1.350000E-01  0.000000E+00  1.350000E-01 
 0.000000E+00  1.350000E-01  0.000000E+00  1.350000E-01  0.000000E+00  1.350000E-01  0.000000E+00  1.350000E-01  0.000000E+00  1.350000E-01 
 0.000000E+00  1.350000E-01  0.000000E+00  1.350000E-01  0.000000E+00  1.350000E-01  0.000000E+00  1.350000E-01  0.000000E+00  1.350000E-01 
 0.000000E+00  1.350000E-01  0.000000E+00  1.350000E-01  0.000000E+00  1.350000E-01  0.000000E+00  1.350000E-01  0.000000E+00  1.350000E-01 
 0.000000E+00  1.350000E-01  0.000000E+00  1.350000E-01  0.000000E+00  1.350000E-01  0.000000E+00  1.350000E-01  0.000000E+00  1.350000E-01 
 0.000000E+00  1.350000E-01  0.000000E+00  1.350000E-01 
 0.000000E+00  0.000000E+00  1.350000E-01  1.350000E-01  0.000000E+00  0.000000E+00  1.350000E-01  1.350000E-01  0.000000E+00  0.000000E+00 
 1.350000E-01  1.350000E-01  0.000000E+00  0.000000E+00  1.350000E-01  1.350000E-01  0.000000E+00  0.000000E+00  1.350000E-01  1.350000E-01 
 0.000000E+00  0.000000E+00  1.350000E-01  1.350000E-01  0.000000E+00  0.000000E+00  1.350000E-01  1.350000E-01  0.000000E+00  0.000000E+00 
 1.350000E-01  1.350000E-01  0.000000E+00  0.000000E+00  1.350000E-01  1.350000E-01  0.000000E+00  0.000000E+00  1.350000E-01  1.350000E-01 
 0.000000E+00  0.000000E+00  1.350000E-01  1.350000E-01  0.000000E+00  0.000000E+00  1.350000E-01  1.350000E-01  0.000000E+00  0.000000E+00 
 1.350000E-01  1.350000E-01  0.000000E+00  0.000000E+00  1.350000E-01  1.350000E-01  0.000000E+00  0.000000E+00  1.350000E-01  1.350000E-01 
 0.000000E+00  0.000000E+00  1.350000E-01  1.350000E-01  0.000000E+00  0.000000E+00  1.350000E-01  1.350000E-01  0.000000E+00  0.000000E+00 
 1.350000E-01  1.350000E-01  0.000000E+00  0.000000E+00  1.350000E-01  1.350000E-01  0.000000E+00  0.000000E+00  1.350000E-01  1.350000E-01 
 0.000000E+00  0.000000E+00  1.350000E-01  1.350000E-01  0.000000E+00  0.000000E+00  1.350000E-01  1.350000E-01  0.000000E+00  0.000000E+00 
 1.350000E-01  1.350000E-01  0.000000E+00  0.000000E+00  1.350000E-01  1.350000E-01  0.000000E+00  0.000000E+00  1.350000E-01  1.350000E-01 
 0.000000E+00  0.000000E+00  1.350000E-01  1.350000E-01  0.000000E+00  0.000000E+00  1.350000E-01  1.350000E-01  0.000000E+00  0.000000E+00 
 1.350000E-01  1.350000E-01  0.000000E+00  0.000000E+00  1.350000E-01  1.350000E-01  0.000000E+00  0.000000E+00  1.350000E-01  1.350000E-01 
 0.000000E+00  0.000000E+00  1.350000E-01  1.350000E-01  0.000000E+00  0.000000E+00  1.350000E-01  1.350000E-01  0.000000E+00  0.000000E+00 
 1.350000E-01  1.350000E-01  0.000000E+00  0.000000E+00  1.350000E-01  1.350000E-01  0.000000E+00  0.000000E+00  1.350000E-01  1.350000E-01 
 0.000000E+00  0.000000E+00  1.350000E-01  1.350000E-01  0.000000E+00  0.000000E+00  1.350000E-01  1.350000E-01  0.000000E+00  0.000000E+00 
 1.350000E-01  1.350000E-01  0.000000E+00  0.000000E+00  1.350000E-01  1.350000E-01  0.000000E+00  0.000000E+00  1.350000E-01  1.350000E-01 
 0.000000E+00  0.000000E+00  1.350000E-01  1.350000E-01  0.000000E+00  0.000000E+00  1.350000E-01  1.350000E-01  0.000000E+00  0.000000E+00 
 1.350000E-01  1.350000E-01  0.000000E+00  0.000000E+00  1.350000E-01  1.350000E-01  0.000000E+00  0.000000E+00  1.350000E-01  1.350000E-01 
 0.000000E+00  0.000000E+00  1.350000E-01  1.350000E-01  0.000000E+00  0.000000E+00  1.350000E-01  1.350000E-01  0.000000E+00  0.000000E+00 
 1.350000E-01  1.350000E-01  0.000000E+00  0.000000E+00  1.350000E-01  1.350000E-01  0.000000E+00  0.000000E+00  1.350000E-01  1.350000E-01 
 0.000000E+00  0.000000E+00  1.350000E-01  1.350000E-01  0.000000E+00  0.000000E+00  1.350000E-01  1.350000E-01  0.000000E+00  0.000000E+00 
 1.350000E-01  1.350000E-01  0.000000E+00  0.000000E+00  1.350000E-01  1.350000E-01  0.000000E+00  0.000000E+00  1.350000E-01  1.350000E-01 
 0.000000E+00  0.000000E+00  1.350000E-01  1.350000E-01  0.000000E+00  0.000000E+00  1.350000E-01  1.350000E-01  0.000000E+00  0.000000E+00 
 1.350000E-01  1.350000E-01  0.000000E+00  0.000000E+00  1.350000E-01  1.350000E-01  0.000000E+00  0.000000E+00  1.350000E-01  1.350000E-01 
 0.000000E+00  0.000000E+00  1.350000E-01  1.350000E-01  0.000000E+00  0.000000E+00  1.350000E-01  1.350000E-01  0.000000E+00  0.000000E+00 
 1.350000E-01  1.350000E-01  0.000000E+00  0.000000E+00  1.350000E-01  1.350000E-01  0.000000E+00  0.000000E+00  1.350000E-01  1.350000E-01 
 0.000000E+00  0.000000E+00  1.350000E-01  1.350000E-01  0.000000E+00  0.000000E+00  1.350000E-01  1.350000E-01  0.000000E+00  0.000000E+00 
 1.350000E-01  1.350000E-01  0.000000E+00  0.000000E+00  1.350000E-01  1.350000E-01  0.000000E+00  0.000000E+00  1.350000E-01  1.350000E-01 
 0.000000E+00  0.000000E+00  1.350000E-01  1.350000E-01  0.000000E+00  0.000000E+00  1.350000E-01  1.350000E-01  0.000000E+00  0.000000E+00 
 1.350000E-01  1.350000E-01  0.000000E+00  0.000000E+00  1.350000E-01  1.350000E-01  0.000000E+00  0.000000E+00  1.350000E-01  1.350000E-01 
 0.000000E+00  0.000000E+00  1.350000E-01  1.350000E-01  0.000000E+00  0.000000E+00  1.350000E-01  1.350000E-01  0.000000E+00  0.000000E+00 
 1.350000E-01  1.350000E-01  0.000000E+00  0.000000E+00  1.350000E-01  1.350000E-01  0.000000E+00  0.000000E+00  1.350000E-01  1.350000E-01 
 0.000000E+00  0.000000E+00  1.350000E-01  1.350000E-01  0.000000E+00  0.000000E+00  1.350000E-01  1.350000E-01  0.000000E+00  0.000000E+00 
 1.350000E-01  1.350000E-01  0.000000E+00  0.000000E+00  1.350000E-01  1.350000E-01  0.000000E+00  0.000000E+00  1.350000E-01  1.350000E-01 
 0.000000E+00  0.000000E+00  1.350000E-01  1.350000E-01  0.000000E+00  0.000000E+00  1.350000E-01  1.350000E-01  0.000000E+00  0.000000E+00 
 1.350000E-01  1.350000E-01  0.000000E+00  0.000000E+00  1.350000E-01  1.350000E-01  0.000000E+00  0.000000E+00  1.350000E-01  1.350000E-01 
 0.000000E+00  0.000000E+00  1.350000E-01  1.350000E-01  0.000000E+00  0.000000E+00  1.350000E-01  1.350000E-01  0.000000E+00  0.000000E+00 
 1.350000E-01  1.350000E-01  0.000000E+00  0.000000E+00  1.350000E-01  1.350000E-01  0.000000E+00  0.000000E+00  1.350000E-01  1.350000E-01 
 0.000000E+00  0.000000E+00  1.350000E-01  1.350000E-01  0.000000E+00  0.000000E+00  1.350000E-01  1.350000E-01  0.000000E+00  0.000000E+00 
 1.350000E-01  1.350000E-01  0.000000E+00  0.000000E+00  1.350000E-01  1.350000E-01  0.000000E+00  0.000000E+00  1.350000E-01  1.350000E-01 
 0.000000E+00  0.000000E+00  1.350000E-01  1.350000E-01 
-3.000000E-01 -3.000000E-01 -3.000000E-01 -3.000000E-01 -2.970000E-01 -2.970000E-01 -2.970000E-01 -2.970000E-01 -2.940000E-01 -2.940000E-01 
-2.940000E-01 -2.940000E-01 -2.910000E-01 -2.910000E-01 -2.910000E-01 -2.910000E-01 -2.880000E-01 -2.880000E-01 -2.880000E-01 -2.880000E-01 
-2.850000E-01 -2.850000E-01 -2.850000E-01 -2.850000E-01 -2.820000E-01 -2.820000E-01 -2.820000E-01 -2.820000E-01 -2.790000E-01 -2.790000E-01 
-2.790000E-01 -2.790000E-01 -2.760000E-01 -2.760000E-01 -2.760000E-01 -2.760000E-01 -2.730000E-01 -2.730000E-01 -2.730000E-01 -2.730000E-01 
-2.700000E-01 -2.700000E-01 -2.700000E-01 -2.700000E-01 -2.670000E-01 -2.670000E-01 -2.670000E-01 -2.670000E-01 -2.640000E-01 -2.640000E-01 
-2.640000E-01 -2.640000E-01 -2.610000E-01 -2.610000E-01 -2.610000E-01 -2.610000E-01 -2.580000E-01 -2.580000E-01 -2.580000E-01 -2.580000E-01 
-2.550000E-01 -2.550000E-01 -2.550000E-01 -2.550000E-01 -2.520000E-01 -2.520000E-01 -2.520000E-01 -2.520000E-01 -2.490000E-01 -2.490000E-01 
-2.490000E-01 -2.490000E-01 -2.460000E-01 -2.460000E-01 -2.460000E-01 -2.460000E-01 -2.430000E-01 -2.430000E-01 -2.430000E-01 -2.430000E-01 
-2.400000E-01 -2.400000E-01 -2.400000E-01 -2.400000E-01 -2.370000E-01 -2.370000E-01 -2.370000E-01 -2.370000E-01 -2.340000E-01 -2.340000E-01 
-2.340000E-01 -2.340000E-01 -2.310000E-01 -2.310000E-01 -2.310000E-01 -2.310000E-01 -2.280000E-01 -2.280000E-01 -2.280000E-01 -2.280000E-01 
-2.250000E-01 -2.250000E-01 -2.250000E-01 -2.250000E-01 -2.220000E-01 -2.220000E-01 -2.220000E-01 -2.220000E-01 -2.190000E-01 -2.190000E-01 
-2.190000E-01 -2.190000E-01 -2.160000E-01 -2.160000E-01 -2.160000E-01 -2.160000E-01 -2.130000E-01 -2.130000E-01 -2.130000E-01 -2.130000E-01 
-2.100000E-01 -2.100000E-01 -2.100000E-01 -2.100000E-01 -2.070000E-01 -2.070000E-01 -2.070000E-01 -2.070000E-01 -2.040000E-01 -2.040000E-01 
-2.040000E-01 -2.040000E-01 -2.010000E-01 -2.010000E-01 -2.010000E-01 -2.010000E-01 -1.980000E-01 -1.980000E-01 -1.980000E-01 -1.980000E-01 
-1.950000E-01 -1.950000E-01 -1.950000E-01 -1.950000E-01 -1.920000E-01 -1.920000E-01 -1.920000E-01 -1.920000E-01 -1.890000E-01 -1.890000E-01 
-1.890000E-01 -1.890000E-01 -1.860000E-01 -1.860000E-01 -1.860000E-01 -1.860000E-01 -1.830000E-01 -1.830000E-01 -1.830000E-01 -1.830000E-01 
-1.800000E-01 -1.800000E-01 -1.800000E-01 -1.800000E-01 -1.770000E-01 -1.770000E-01 -1.770000E-01 -1.770000E-01 -1.740000E-01 -1.740000E-01 
-1.740000E-01 -1.740000E-01 -1.710000E-01 -1.710000E-01 -1.710000E-01 -1.710000E-01 -1.680000E-01 -1.680000E-01 -1.680000E-01 -1.680000E-01 
-1.650000E-01 -1.650000E-01 -1.650000E-01 -1.650000E-01 -1.620000E-01 -1.620000E-01 -1.620000E-01 -1.620000E-01 -1.590000E-01 -1.590000E-01 
-1.590000E-01 -1.590000E-01 -1.560000E-01 -1.560000E-01 -1.560000E-01 -1.560000E-01 -1.530000E-01 -1.530000E-01 -1.530000E-01 -1.530000E-01 
-1.500000E-01 -1.500000E-01 -1.500000E-01 -1.500000E-01 -1.470000E-01 -1.470000E-01 -1.470000E-01 -1.470000E-01 -1.440000E-01 -1.440000E-01 
-1.440000E-01 -1.440000E-01 -1.410000E-01 -1.410000E-01 -1.410000E-01 -1.410000E-01 -1.380000E-01 -1.380000E-01 -1.380000E-01 -1.380000E-01 
-1.350000E-01 -1.350000E-01 -1.350000E-01 -1.350000E-01 -1.320000E-01 -1.320000E-01 -1.320000E-01 -1.320000E-01 -1.290000E-01 -1.290000E-01 
-1.290000E-01 -1.290000E-01 -1.260000E-01 -1.260000E-01 -1.260000E-01 -1.260000E-01 -1.230000E-01 -1.230000E-01 -1.230000E-01 -1.230000E-01 
-1.200000E-01 -1.200000E-01 -1.200000E-01 -1.200000E-01 -1.170000E-01 -1.170000E-01 -1.170000E-01 -1.170000E-01 -1.140000E-01 -1.140000E-01 
-1.140000E-01 -1.140000E-01 -1.110000E-01 -1.110000E-01 -1.110000E-01 -1.110000E-01 -1.080000E-01 -1.080000E-01 -1.080000E-01 -1.080000E-01 
-1.050000E-01 -1.050000E-01 -1.050000E-01 -1.050000E-01 -1.020000E-01 -1.020000E-01 -1.020000E-01 -1.020000E-01 -9.900000E-02 -9.900000E-02 
-9.900000E-02 -9.900000E-02 -9.600000E-02 -9.600000E-02 -9.600000E-02 -9.600000E-02 -9.300000E-02 -9.300000E-02 -9.300000E-02 -9.300000E-02 
-9.000000E-02 -9.000000E-02 -9.000000E-02 -9.000000E-02 -8.700000E-02 -8.700000E-02 -8.700000E-02 -8.700000E-02 -8.400000E-02 -8.400000E-02 
-8.400000E-02 -8.400000E-02 -8.100000E-02 -8.100000E-02 -8.100000E-02 -8.100000E-02 -7.800000E-02 -7.800000E-02 -7.800000E-02 -7.800000E-02 
-7.500000E-02 -7.500000E-02 -7.500000E-02 -7.500000E-02 -7.200000E-02 -7.200000E-02 -7.200000E-02 -7.200000E-02 -6.900000E-02 -6.900000E-02 
-6.900000E-02 -6.900000E-02 -6.600000E-02 -6.600000E-02 -6.600000E-02 -6.600000E-02 -6.300000E-02 -6.300000E-02 -6.300000E-02 -6.300000E-02 
-6.000000E-02 -6.000000E-02 -6.000000E-02 -6.000000E-02 -5.700000E-02 -5.700000E-02 -5.700000E-02 -5.700000E-02 -5.400000E-02 -5.400000E-02 
-5.400000E-02 -5.400000E-02 -5.100000E-02 -5.100000E-02 -5.100000E-02 -5.100000E-02 -4.800000E-02 -4.800000E-02 -4.800000E-02 -4.800000E-02 
-4.500000E-02 -4.500000E-02 -4.500000E-02 -4.500000E-02 -4.200000E-02 -4.200000E-02 -4.200000E-02 -4.200000E-02 -3.900000E-02 -3.900000E-02 
-3.900000E-02 -3.900000E-02 -3.600000E-02 -3.600000E-02 -3.600000E-02 -3.600000E-02 -3.300000E-02 -3.300000E-02 -3.300000E-02 -3.300000E-02 
-3.000000E-02 -3.000000E-02 -3.000000E-02 -3.000000E-02 -2.700000E-02 -2.700000E-02 -2.700000E-02 -2.700000E-02 -2.400000E-02 -2.400000E-02 
-2.400000E-02 -2.400000E-02 -2.100000E-02 -2.100000E-02 -2.100000E-02 -2.100000E-02 -1.800000E-02 -1.800000E-02 -1.800000E-02 -1.800000E-02 
-1.500000E-02 -1.500000E-02 -1.500000E-02 -1.500000E-02 -1.200000E-02 -1.200000E-02 -1.200000E-02 -1.200000E-02 -9.000000E-03 -9.000000E-03 
-9.000000E-03 -9.000000E-03 -6.000000E-03 -6.000000E-03 -6.000000E-03 -6.000000E-03 -3.000000E-03 -3.000000E-03 -3.000000E-03 -3.000000E-03 
 2.419939E-16  2.419939E-16  2.419939E-16  2.419939E-16 
 0.000000E+00  0.000000E+00  0.000000E+00  0.000000E+00  0.000000E+00  0.000000E+00  0.000000E+00  0.000000E+00  0.000000E+00  0.000000E+00
 0.000000E+00  0.000000E+00  0.000000E+00  0.000000E+00  0.000000E+00  0.000000E+00  0.000000E+00  0.000000E+00  0.000000E+00  0.000000E+00
 0.000000E+00  0.000000E+00  0.000000E+00  0.000000E+00  0.000000E+00  0.000000E+00  0.000000E+00  0.000000E+00  0.000000E+00  0.000000E+00
 0.000000E+00  0.000000E+00  0.000000E+00  0.000000E+00  0.000000E+00  0.000000E+00  0.000000E+00  0.000000E+00  0.000000E+00  0.000000E+00
 0.000000E+00  0.000000E+00  0.000000E+00  0.000000E+00  0.000000E+00  0.000000E+00  0.000000E+00  0.000000E+00  0.000000E+00  0.000000E+00
 0.000000E+00  0.000000E+00  0.000000E+00  0.000000E+00  0.000000E+00  0.000000E+00  0.000000E+00  0.000000E+00  0.000000E+00  0.000000E+00
 0.000000E+00  0.000000E+00  0.000000E+00  0.000000E+00  0.000000E+00  0.000000E+00  0.000000E+00  0.000000E+00  0.000000E+00  0.000000E+00
 0.000000E+00  0.000000E+00  0.000000E+00  0.000000E+00  0.000000E+00  0.000000E+00  0.000000E+00  0.000000E+00  0.000000E+00  0.000000E+00
 0.000000E+00  0.000000E+00  0.000000E+00  0.000000E+00  0.000000E+00  0.000000E+00  0.000000E+00  0.000000E+00  0.000000E+00  0.000000E+00
 0.000000E+00  0.000000E+00  0.000000E+00  0.000000E+00  0.000000E+00  0.000000E+00  0.000000E+00  0.000000E+00  0.000000E+00  0.000000E+00
 0.000000E+00  0.000000E+00  0.000000E+00  0.000000E+00  0.000000E+00  0.000000E+00  0.000000E+00  0.000000E+00  0.000000E+00  0.000000E+00
 0.000000E+00  0.000000E+00  0.000000E+00  0.000000E+00  0.000000E+00  0.000000E+00  0.000000E+00  0.000000E+00  0.000000E+00  0.000000E+00
 0.000000E+00  0.000000E+00  0.000000E+00  0.000000E+00  0.000000E+00  0.000000E+00  0.000000E+00  0.000000E+00  0.000000E+00  0.000000E+00
 0.000000E+00  0.000000E+00  0.000000E+00  0.000000E+00  0.000000E+00  0.000000E+00  0.000000E+00  0.000000E+00  0.000000E+00  0.000000E+00
 0.000000E+00  0.000000E+00  0.000000E+00  0.000000E+00  0.000000E+00  0.000000E+00  0.000000E+00  0.000000E+00  0.000000E+00  0.000000E+00
 0.000000E+00  0.000000E+00  0.000000E+00  0.000000E+00  0.000000E+00  0.000000E+00  0.000000E+00  0.000000E+00  0.000000E+00  0.000000E+00
 0.000000E+00  0.000000E+00  0.000000E+00  0.000000E+00  0.000000E+00  0.000000E+00  0.000000E+00  0.000000E+00  0.000000E+00  0.000000E+00
 0.000000E+00  0.000000E+00  0.000000E+00  0.000000E+00  0.000000E+00  0.000000E+00  0.000000E+00  0.000000E+00  0.000000E+00  0.000000E+00
 0.000000E+00  0.000000E+00  0.000000E+00  0.000000E+00  0.000000E+00  0.000000E+00  0.000000E+00  0.000000E+00  0.000000E+00  0.000000E+00
 0.000000E+00  0.000000E+00  0.000000E+00  0.000000E+00  0.000000E+00  0.000000E+00  0.000000E+00  0.000000E+00  0.000000E+00  0.000000E+00
-9.999938E-03 -9.999921E-03 -9.999925E-03 -9.999927E-03 -9.999928E-03 -9.999929E-03 -9.999930E-03 -9.999931E-03 -9.999932E-03 -9.999933E-03
-9.999934E-03 -9.999936E-03 -9.999937E-03 -9.999938E-03 -9.999940E-03 -9.999941E-03 -9.999942E-03 -9.999944E-03 -9.999945E-03 -9.999947E-03
-9.999948E-03 -9.999949E-03 -9.999951E-03 -9.999952E-03 -9.999954E-03 -9.999955E-03 -9.999956E-03 -9.999957E-03 -9.999959E-03 -9.999960E-03
-9.999961E-03 -9.999962E-03 -9.999963E-03 -9.999964E-03 -9.999965E-03 -9.999965E-03 -9.999966E-03 -9.999967E-03 -9.999968E-03 -9.999969E-03
-9.999969E-03 -9.999970E-03 -9.999971E-03 -9.999971E-03 -9.999972E-03 -9.999973E-03 -9.999973E-03 -9.999974E-03 -9.999975E-03 -9.999975E-03
-9.999976E-03 -9.999976E-03 -9.999977E-03 -9.999978E-03 -9.999978E-03 -9.999979E-03 -9.999979E-03 -9.999980E-03 -9.999980E-03 -9.999981E-03
-9.999981E-03 -9.999982E-03 -9.999983E-03 -9.999983E-03 -9.999984E-03 -9.999984E-03 -9.999985E-03 -9.999985E-03 -9.999986E-03 -9.999986E-03
-9.999987E-03 -9.999987E-03 -9.999988E-03 -9.999988E-03 -9.999989E-03 -9.999989E-03 -9.999990E-03 -9.999990E-03 -9.999990E-03 -9.999991E-03
-9.999991E-03 -9.999992E-03 -9.999992E-03 -9.999993E-03 -9.999993E-03 -9.999994E-03 -9.999994E-03 -9.999995E-03 -9.999995E-03 -9.999995E-03
-9.999996E-03 -9.999996E-03 -9.999997E-03 -9.999997E-03 -9.999998E-03 -9.999998E-03 -9.999999E-03 -9.999999E-03 -9.999999E-03 -6.666667E-03
 0.000000E+00  0.000000E+00  0.000000E+00  0.000000E+00  0.000000E+00  0.000000E+00  0.000000E+00  0.000000E+00  0.000000E+00  0.000000E+00
 0.000000E+00  0.000000E+00  0.000000E+00  0.000000E+00  0.000000E+00  0.000000E+00  0.000000E+00  0.000000E+00  0.000000E+00  0.000000E+00
 0.000000E+00  0.000000E+00  0.000000E+00  0.000000E+00  0.000000E+00  0.000000E+00  0.000000E+00  0.000000E+00  0.000000E+00  0.000000E+00
 0.000000E+00  0.000000E+00  0.000000E+00  0.000000E+00  0.000000E+00  0.000000E+00  0.000000E+00  0.000000E+00  0.000000E+00  0.000000E+00
 0.000000E+00  0.000000E+00  0.000000E+00  0.000000E+00  0.000000E+00  0.000000E+00  0.000000E+00  0.000000E+00  0.000000E+00  0.000000E+00
 0.000000E+00  0.000000E+00  0.000000E+00  0.000000E+00  0.000000E+00  0.000000E+00  0.000000E+00  0.000000E+00  0.000000E+00  0.000000E+00
 0.000000E+00  0.000000E+00  0.000000E+00  0.000000E+00  0.000000E+00  0.000000E+00  0.000000E+00  0.000000E+00  0.000000E+00  0.000000E+00
 0.000000E+00  0.000000E+00  0.000000E+00  0.000000E+00  0.000000E+00  0.000000E+00  0.000000E+00  0.000000E+00  0.000000E+00  0.000000E+00
 0.000000E+00  0.000000E+00  0.000000E+00  0.000000E+00  0.000000E+00  0.000000E+00  0.000000E+00  0.000000E+00  0.000000E+00  0.000000E+00
 0.000000E+00  0.000000E+00  0.000000E+00  0.000000E+00  0.000000E+00  0.000000E+00  0.000000E+00  0.000000E+00  0.000000E+00  0.000000E+00
 0.000000E+00  0.000000E+00  0.000000E+00  0.000000E+00  0.000000E+00  0.000000E+00  0.000000E+00  0.000000E+00  0.000000E+00  0.000000E+00
 0.000000E+00  0.000000E+00  0.000000E+00  0.000000E+00  0.000000E+00  0.000000E+00  0.000000E+00  0.000000E+00  0.000000E+00  0.000000E+00
 0.000000E+00  0.000000E+00  0.000000E+00  0.000000E+00  0.000000E+00  0.000000E+00  0.000000E+00  0.000000E+00  0.000000E+00  0.000000E+00
 0.000000E+00  0.000000E+00  0.000000E+00  0.000000E+00  0.000000E+00  0.000000E+00  0.000000E+00  0.000000E+00  0.000000E+00  0.000000E+00
 0.000000E+00  0.000000E+00  0.000000E+00  0.000000E+00  0.000000E+00  0.000000E+00  0.000000E+00  0.000000E+00  0.000000E+00  0.000000E+00
 0.000000E+00  0.000000E+00  0.000000E+00  0.000000E+00  0.000000E+00  0.000000E+00  0.000000E+00  0.000000E+00  0.000000E+00  0.000000E+00
 0.000000E+00  0.000000E+00  0.000000E+00  0.000000E+00  0.000000E+00  0.000000E+00  0.000000E+00  0.000000E+00  0.000000E+00  0.000000E+00
 0.000000E+00  0.000000E+00  0.000000E+00  0.000000E+00  0.000000E+00  0.000000E+00  0.000000E+00  0.000000E+00  0.000000E+00  0.000000E+00
 0.000000E+00  0.000000E+00  0.000000E+00  0.000000E+00  0.000000E+00  0.000000E+00  0.000000E+00  0.000000E+00  0.000000E+00  0.000000E+00
 0.000000E+00  0.000000E+00  0.000000E+00  0.000000E+00  0.000000E+00  0.000000E+00  0.000000E+00  0.000000E+00  0.000000E+00  0.000000E+00
-3.234964E-06 -3.234858E-06 -3.234713E-06 -3.234514E-06 -3.234262E-06 -3.233958E-06 -3.233606E-06 -3.233206E-06 -3.232761E-06 -3.232272E-06
-3.231740E-06 -3.231166E-06 -3.230552E-06 -3.229899E-06 -3.229207E-06 -3.228479E-06 -3.227713E-06 -3.457300E-06 -3.930527E-06 -4.421277E-06
-4.901963E-06 -5.347092E-06 -5.740551E-06 -6.065489E-06 -6.309399E-06 -6.466327E-06 -6.537994E-06 -6.533204E-06 -6.465735E-06 -6.351513E-06
-6.206011E-06 -6.042524E-06 -5.871416E-06 -5.700127E-06 -5.533597E-06 -5.374842E-06 -5.225488E-06 -5.086218E-06 -4.957112E-06 -4.837877E-06
-4.728011E-06 -4.626905E-06 -4.533909E-06 -4.448374E-06 -4.369677E-06 -4.297227E-06 -4.230480E-06 -4.168932E-06 -4.112127E-06 -4.059645E-06
-4.011110E-06 -3.966177E-06 -3.924537E-06 -3.885907E-06 -3.850035E-06 -3.816688E-06 -3.785658E-06 -3.756757E-06 -3.729810E-06 -3.704663E-06
-3.681174E-06 -3.659212E-06 -3.638660E-06 -3.619411E-06 -3.601367E-06 -3.584437E-06 -3.568540E-06 -3.553601E-06 -3.539551E-06 -3.526326E-06
-3.513869E-06 -3.502127E-06 -3.491049E-06 -3.480593E-06 -3.470715E-06 -3.461377E-06 -3.452544E-06 -3.444183E-06 -3.436264E-06 -3.428759E-06
-3.421642E-06 -3.414889E-06 -3.408477E-06 -3.402385E-06 -3.396595E-06 -3.391090E-06 -3.385851E-06 -3.380863E-06 -3.376113E-06 -3.371586E-06
-3.367270E-06 -3.363154E-06 -3.359225E-06 -3.355475E-06 -3.351893E-06 -3.348470E-06 -3.345199E-06 -3.342071E-06 -3.339078E-06 -7.512139E-06
 1  1  1  1  1  1  1  1  1  1
 1  1  1  1  1  1  1  1  1  1
 1  1  1  1  1  1  1  1  1  1
 1  1  1  1  1  1  1  1  1  1
 1  1  1  1  1  1  1  1  1  1
 1  1  1  1  1  1  1  1  1  1
 1  1  1  1  1  1  1  1  1  1
 1  1  1  1  1  1  1  1  1  1
 1  1  1  1  1  1  1  1  1  1
 1  1  1  1  1  1  1  1  1  1
