TITLE = "  1.41000E+03 [h]"
VARIABLES="X [m]","Y [m]","Z [m]","qlx [m/h]","qly [m/h]","qlz [m/h]","qgx [m/h]","qgy [m/h]","qgz [m/h]","Material_ID"
ZONE T="1.41000E+03", STRANDID=1, SOLUTIONTIME=1.41000E+03, I=2, J=2, K=101, VARLOCATION=([4-10]=CELLCENTERED), DATAPACKING=BLOCK
 0.000000E+00  1.350000E-01  0.000000E+00  1.350000E-01  0.000000E+00  1.350000E-01  0.000000E+00  1.350000E-01  0.000000E+00  1.350000E-01 
 0.000000E+00  1.350000E-01  0.000000E+00  1.350000E-01  0.000000E+00  1.350000E-01  0.000000E+00  1.350000E-01  0.000000E+00  1.350000E-01 
 0.000000E+00  1.350000E-01  0.000000E+00  1.350000E-01  0.000000E+00  1.350000E-01  0.000000E+00  1.350000E-01  0.000000E+00  1.350000E-01 
 0.000000E+00  1.350000E-01  0.000000E+00  1.350000E-01  0.000000E+00  1.350000E-01  0.000000E+00  1.350000E-01  0.000000E+00  1.350000E-01 
 0.000000E+00  1.350000E-01  0.000000E+00  1.350000E-01  0.000000E+00  1.350000E-01  0.000000E+00  1.350000E-01  0.000000E+00  1.350000E-01 
 0.000000E+00  1.350000E-01  0.000000E+00  1.350000E-01  0.000000E+00  1.350000E-01  0.000000E+00  1.350000E-01  0.000000E+00  1.350000E-01 
 0.000000E+00  1.350000E-01  0.000000E+00  1.350000E-01  0.000000E+00  1.350000E-01  0.000000E+00  1.350000E-01  0.000000E+00  1.350000E-01 
 0.000000E+00  1.350000E-01  0.000000E+00  1.350000E-01  0.000000E+00  1.350000E-01  0.000000E+00  1.350000E-01  0.000000E+00  1.350000E-01 
 0.000000E+00  1.350000E-01  0.000000E+00  1.350000E-01  0.000000E+00  1.350000E-01  0.000000E+00  1.350000E-01  0.000000E+00  1.350000E-01 
 0.000000E+00  1.350000E-01  0.000000E+00  1.350000E-01  0.000000E+00  1.350000E-01  0.000000E+00  1.350000E-01  0.000000E+00  1.350000E-01 
 0.000000E+00  1.350000E-01  0.000000E+00  1.350000E-01  0.000000E+00  1.350000E-01  0.000000E+00  1.350000E-01  0.000000E+00  1.350000E-01 
 0.000000E+00  1.350000E-01  0.000000E+00  1.350000E-01  0.000000E+00  1.350000E-01  0.000000E+00  1.350000E-01  0.000000E+00  1.350000E-01 
 0.000000E+00  1.350000E-01  0.000000E+00  1.350000E-01  0.000000E+00  1.350000E-01  0.000000E+00  1.350000E-01  0.000000E+00  1.350000E-01 
 0.000000E+00  1.350000E-01  0.000000E+00  1.350000E-01  0.000000E+00  1.350000E-01  0.000000E+00  1.350000E-01  0.000000E+00  1.350000E-01 
 0.000000E+00  1.350000E-01  0.000000E+00  1.350000E-01  0.000000E+00  1.350000E-01  0.000000E+00  1.350000E-01  0.000000E+00  1.350000E-01 
 0.000000E+00  1.350000E-01  0.000000E+00  1.350000E-01  0.000000E+00  1.350000E-01  0.000000E+00  1.350000E-01  0.000000E+00  1.350000E-01 
 0.000000E+00  1.350000E-01  0.000000E+00  1.350000E-01  0.000000E+00  1.350000E-01  0.000000E+00  1.350000E-01  0.000000E+00  1.350000E-01 
 0.000000E+00  1.350000E-01  0.000000E+00  1.350000E-01  0.000000E+00  1.350000E-01  0.000000E+00  1.350000E-01  0.000000E+00  1.350000E-01 
 0.000000E+00  1.350000E-01  0.000000E+00  1.350000E-01  0.000000E+00  1.350000E-01  0.000000E+00  1.350000E-01  0.000000E+00  1.350000E-01 
 0.000000E+00  1.350000E-01  0.000000E+00  1.350000E-01  0.000000E+00  1.350000E-01  0.000000E+00  1.350000E-01  0.000000E+00  1.350000E-01 
 0.000000E+00  1.350000E-01  0.000000E+00  1.350000E-01  0.000000E+00  1.350000E-01  0.000000E+00  1.350000E-01  0.000000E+00  1.350000E-01 
 0.000000E+00  1.350000E-01  0.000000E+00  1.350000E-01  0.000000E+00  1.350000E-01  0.000000E+00  1.350000E-01  0.000000E+00  1.350000E-01 
 0.000000E+00  1.350000E-01  0.000000E+00  1.350000E-01  0.000000E+00  1.350000E-01  0.000000E+00  1.350000E-01  0.000000E+00  1.350000E-01 
 0.000000E+00  1.350000E-01  0.000000E+00  1.350000E-01  0.000000E+00  1.350000E-01  0.000000E+00  1.350000E-01  0.000000E+00  1.350000E-01 
 0.000000E+00  1.350000E-01  0.000000E+00  1.350000E-01  0.000000E+00  1.350000E-01  0.000000E+00  1.350000E-01  0.000000E+00  1.350000E-01 
 0.000000E+00  1.350000E-01  0.000000E+00  1.350000E-01  0.000000E+00  1.350000E-01  0.000000E+00  1.350000E-01  0.000000E+00  1.350000E-01 
 0.000000E+00  1.350000E-01  0.000000E+00  1.350000E-01  0.000000E+00  1.350000E-01  0.000000E+00  1.350000E-01  0.000000E+00  1.350000E-01 
 0.000000E+00  1.350000E-01  0.000000E+00  1.350000E-01  0.000000E+00  1.350000E-01  0.000000E+00  1.350000E-01  0.000000E+00  1.350000E-01 
 0.000000E+00  1.350000E-01  0.000000E+00  1.350000E-01  0.000000E+00  1.350000E-01  0.000000E+00  1.350000E-01  0.000000E+00  1.350000E-01 
 0.000000E+00  1.350000E-01  0.000000E+00  1.350000E-01  0.000000E+00  1.350000E-01  0.000000E+00  1.350000E-01  0.000000E+00  1.350000E-01 
 0.000000E+00  1.350000E-01  0.000000E+00  1.350000E-01  0.000000E+00  1.350000E-01  0.000000E+00  1.350000E-01  0.000000E+00  1.350000E-01 
 0.000000E+00  1.350000E-01  0.000000E+00  1.350000E-01  0.000000E+00  1.350000E-01  0.000000E+00  1.350000E-01  0.000000E+00  1.350000E-01 
 0.000000E+00  1.350000E-01  0.000000E+00  1.350000E-01  0.000000E+00  1.350000E-01  0.000000E+00  1.350000E-01  0.000000E+00  1.350000E-01 
 0.000000E+00  1.350000E-01  0.000000E+00  1.350000E-01  0.000000E+00  1.350000E-01  0.000000E+00  1.350000E-01  0.000000E+00  1.350000E-01 
 0.000000E+00  1.350000E-01  0.000000E+00  1.350000E-01  0.000000E+00  1.350000E-01  0.000000E+00  1.350000E-01  0.000000E+00  1.350000E-01 
 0.000000E+00  1.350000E-01  0.000000E+00  1.350000E-01  0.000000E+00  1.350000E-01  0.000000E+00  1.350000E-01  0.000000E+00  1.350000E-01 
 0.000000E+00  1.350000E-01  0.000000E+00  1.350000E-01  0.000000E+00  1.350000E-01  0.000000E+00  1.350000E-01  0.000000E+00  1.350000E-01 
 0.000000E+00  1.350000E-01  0.000000E+00  1.350000E-01  0.000000E+00  1.350000E-01  0.000000E+00  1.350000E-01  0.000000E+00  1.350000E-01 
 0.000000E+00  1.350000E-01  0.000000E+00  1.350000E-01  0.000000E+00  1.350000E-01  0.000000E+00  1.350000E-01  0.000000E+00  1.350000E-01 
 0.000000E+00  1.350000E-01  0.000000E+00  1.350000E-01  0.000000E+00  1.350000E-01  0.000000E+00  1.350000E-01  0.000000E+00  1.350000E-01 
 0.000000E+00  1.350000E-01  0.000000E+00  1.350000E-01 
 0.000000E+00  0.000000E+00  1.350000E-01  1.350000E-01  0.000000E+00  0.000000E+00  1.350000E-01  1.350000E-01  0.000000E+00  0.000000E+00 
 1.350000E-01  1.350000E-01  0.000000E+00  0.000000E+00  1.350000E-01  1.350000E-01  0.000000E+00  0.000000E+00  1.350000E-01  1.350000E-01 
 0.000000E+00  0.000000E+00  1.350000E-01  1.350000E-01  0.000000E+00  0.000000E+00  1.350000E-01  1.350000E-01  0.000000E+00  0.000000E+00 
 1.350000E-01  1.350000E-01  0.000000E+00  0.000000E+00  1.350000E-01  1.350000E-01  0.000000E+00  0.000000E+00  1.350000E-01  1.350000E-01 
 0.000000E+00  0.000000E+00  1.350000E-01  1.350000E-01  0.000000E+00  0.000000E+00  1.350000E-01  1.350000E-01  0.000000E+00  0.000000E+00 
 1.350000E-01  1.350000E-01  0.000000E+00  0.000000E+00  1.350000E-01  1.350000E-01  0.000000E+00  0.000000E+00  1.350000E-01  1.350000E-01 
 0.000000E+00  0.000000E+00  1.350000E-01  1.350000E-01  0.000000E+00  0.000000E+00  1.350000E-01  1.350000E-01  0.000000E+00  0.000000E+00 
 1.350000E-01  1.350000E-01  0.000000E+00  0.000000E+00  1.350000E-01  1.350000E-01  0.000000E+00  0.000000E+00  1.350000E-01  1.350000E-01 
 0.000000E+00  0.000000E+00  1.350000E-01  1.350000E-01  0.000000E+00  0.000000E+00  1.350000E-01  1.350000E-01  0.000000E+00  0.000000E+00 
 1.350000E-01  1.350000E-01  0.000000E+00  0.000000E+00  1.350000E-01  1.350000E-01  0.000000E+00  0.000000E+00  1.350000E-01  1.350000E-01 
 0.000000E+00  0.000000E+00  1.350000E-01  1.350000E-01  0.000000E+00  0.000000E+00  1.350000E-01  1.350000E-01  0.000000E+00  0.000000E+00 
 1.350000E-01  1.350000E-01  0.000000E+00  0.000000E+00  1.350000E-01  1.350000E-01  0.000000E+00  0.000000E+00  1.350000E-01  1.350000E-01 
 0.000000E+00  0.000000E+00  1.350000E-01  1.350000E-01  0.000000E+00  0.000000E+00  1.350000E-01  1.350000E-01  0.000000E+00  0.000000E+00 
 1.350000E-01  1.350000E-01  0.000000E+00  0.000000E+00  1.350000E-01  1.350000E-01  0.000000E+00  0.000000E+00  1.350000E-01  1.350000E-01 
 0.000000E+00  0.000000E+00  1.350000E-01  1.350000E-01  0.000000E+00  0.000000E+00  1.350000E-01  1.350000E-01  0.000000E+00  0.000000E+00 
 1.350000E-01  1.350000E-01  0.000000E+00  0.000000E+00  1.350000E-01  1.350000E-01  0.000000E+00  0.000000E+00  1.350000E-01  1.350000E-01 
 0.000000E+00  0.000000E+00  1.350000E-01  1.350000E-01  0.000000E+00  0.000000E+00  1.350000E-01  1.350000E-01  0.000000E+00  0.000000E+00 
 1.350000E-01  1.350000E-01  0.000000E+00  0.000000E+00  1.350000E-01  1.350000E-01  0.000000E+00  0.000000E+00  1.350000E-01  1.350000E-01 
 0.000000E+00  0.000000E+00  1.350000E-01  1.350000E-01  0.000000E+00  0.000000E+00  1.350000E-01  1.350000E-01  0.000000E+00  0.000000E+00 
 1.350000E-01  1.350000E-01  0.000000E+00  0.000000E+00  1.350000E-01  1.350000E-01  0.000000E+00  0.000000E+00  1.350000E-01  1.350000E-01 
 0.000000E+00  0.000000E+00  1.350000E-01  1.350000E-01  0.000000E+00  0.000000E+00  1.350000E-01  1.350000E-01  0.000000E+00  0.000000E+00 
 1.350000E-01  1.350000E-01  0.000000E+00  0.000000E+00  1.350000E-01  1.350000E-01  0.000000E+00  0.000000E+00  1.350000E-01  1.350000E-01 
 0.000000E+00  0.000000E+00  1.350000E-01  1.350000E-01  0.000000E+00  0.000000E+00  1.350000E-01  1.350000E-01  0.000000E+00  0.000000E+00 
 1.350000E-01  1.350000E-01  0.000000E+00  0.000000E+00  1.350000E-01  1.350000E-01  0.000000E+00  0.000000E+00  1.350000E-01  1.350000E-01 
 0.000000E+00  0.000000E+00  1.350000E-01  1.350000E-01  0.000000E+00  0.000000E+00  1.350000E-01  1.350000E-01  0.000000E+00  0.000000E+00 
 1.350000E-01  1.350000E-01  0.000000E+00  0.000000E+00  1.350000E-01  1.350000E-01  0.000000E+00  0.000000E+00  1.350000E-01  1.350000E-01 
 0.000000E+00  0.000000E+00  1.350000E-01  1.350000E-01  0.000000E+00  0.000000E+00  1.350000E-01  1.350000E-01  0.000000E+00  0.000000E+00 
 1.350000E-01  1.350000E-01  0.000000E+00  0.000000E+00  1.350000E-01  1.350000E-01  0.000000E+00  0.000000E+00  1.350000E-01  1.350000E-01 
 0.000000E+00  0.000000E+00  1.350000E-01  1.350000E-01  0.000000E+00  0.000000E+00  1.350000E-01  1.350000E-01  0.000000E+00  0.000000E+00 
 1.350000E-01  1.350000E-01  0.000000E+00  0.000000E+00  1.350000E-01  1.350000E-01  0.000000E+00  0.000000E+00  1.350000E-01  1.350000E-01 
 0.000000E+00  0.000000E+00  1.350000E-01  1.350000E-01  0.000000E+00  0.000000E+00  1.350000E-01  1.350000E-01  0.000000E+00  0.000000E+00 
 1.350000E-01  1.350000E-01  0.000000E+00  0.000000E+00  1.350000E-01  1.350000E-01  0.000000E+00  0.000000E+00  1.350000E-01  1.350000E-01 
 0.000000E+00  0.000000E+00  1.350000E-01  1.350000E-01  0.000000E+00  0.000000E+00  1.350000E-01  1.350000E-01  0.000000E+00  0.000000E+00 
 1.350000E-01  1.350000E-01  0.000000E+00  0.000000E+00  1.350000E-01  1.350000E-01  0.000000E+00  0.000000E+00  1.350000E-01  1.350000E-01 
 0.000000E+00  0.000000E+00  1.350000E-01  1.350000E-01  0.000000E+00  0.000000E+00  1.350000E-01  1.350000E-01  0.000000E+00  0.000000E+00 
 1.350000E-01  1.350000E-01  0.000000E+00  0.000000E+00  1.350000E-01  1.350000E-01  0.000000E+00  0.000000E+00  1.350000E-01  1.350000E-01 
 0.000000E+00  0.000000E+00  1.350000E-01  1.350000E-01  0.000000E+00  0.000000E+00  1.350000E-01  1.350000E-01  0.000000E+00  0.000000E+00 
 1.350000E-01  1.350000E-01  0.000000E+00  0.000000E+00  1.350000E-01  1.350000E-01  0.000000E+00  0.000000E+00  1.350000E-01  1.350000E-01 
 0.000000E+00  0.000000E+00  1.350000E-01  1.350000E-01  0.000000E+00  0.000000E+00  1.350000E-01  1.350000E-01  0.000000E+00  0.000000E+00 
 1.350000E-01  1.350000E-01  0.000000E+00  0.000000E+00  1.350000E-01  1.350000E-01  0.000000E+00  0.000000E+00  1.350000E-01  1.350000E-01 
 0.000000E+00  0.000000E+00  1.350000E-01  1.350000E-01 
-3.000000E-01 -3.000000E-01 -3.000000E-01 -3.000000E-01 -2.970000E-01 -2.970000E-01 -2.970000E-01 -2.970000E-01 -2.940000E-01 -2.940000E-01 
-2.940000E-01 -2.940000E-01 -2.910000E-01 -2.910000E-01 -2.910000E-01 -2.910000E-01 -2.880000E-01 -2.880000E-01 -2.880000E-01 -2.880000E-01 
-2.850000E-01 -2.850000E-01 -2.850000E-01 -2.850000E-01 -2.820000E-01 -2.820000E-01 -2.820000E-01 -2.820000E-01 -2.790000E-01 -2.790000E-01 
-2.790000E-01 -2.790000E-01 -2.760000E-01 -2.760000E-01 -2.760000E-01 -2.760000E-01 -2.730000E-01 -2.730000E-01 -2.730000E-01 -2.730000E-01 
-2.700000E-01 -2.700000E-01 -2.700000E-01 -2.700000E-01 -2.670000E-01 -2.670000E-01 -2.670000E-01 -2.670000E-01 -2.640000E-01 -2.640000E-01 
-2.640000E-01 -2.640000E-01 -2.610000E-01 -2.610000E-01 -2.610000E-01 -2.610000E-01 -2.580000E-01 -2.580000E-01 -2.580000E-01 -2.580000E-01 
-2.550000E-01 -2.550000E-01 -2.550000E-01 -2.550000E-01 -2.520000E-01 -2.520000E-01 -2.520000E-01 -2.520000E-01 -2.490000E-01 -2.490000E-01 
-2.490000E-01 -2.490000E-01 -2.460000E-01 -2.460000E-01 -2.460000E-01 -2.460000E-01 -2.430000E-01 -2.430000E-01 -2.430000E-01 -2.430000E-01 
-2.400000E-01 -2.400000E-01 -2.400000E-01 -2.400000E-01 -2.370000E-01 -2.370000E-01 -2.370000E-01 -2.370000E-01 -2.340000E-01 -2.340000E-01 
-2.340000E-01 -2.340000E-01 -2.310000E-01 -2.310000E-01 -2.310000E-01 -2.310000E-01 -2.280000E-01 -2.280000E-01 -2.280000E-01 -2.280000E-01 
-2.250000E-01 -2.250000E-01 -2.250000E-01 -2.250000E-01 -2.220000E-01 -2.220000E-01 -2.220000E-01 -2.220000E-01 -2.190000E-01 -2.190000E-01 
-2.190000E-01 -2.190000E-01 -2.160000E-01 -2.160000E-01 -2.160000E-01 -2.160000E-01 -2.130000E-01 -2.130000E-01 -2.130000E-01 -2.130000E-01 
-2.100000E-01 -2.100000E-01 -2.100000E-01 -2.100000E-01 -2.070000E-01 -2.070000E-01 -2.070000E-01 -2.070000E-01 -2.040000E-01 -2.040000E-01 
-2.040000E-01 -2.040000E-01 -2.010000E-01 -2.010000E-01 -2.010000E-01 -2.010000E-01 -1.980000E-01 -1.980000E-01 -1.980000E-01 -1.980000E-01 
-1.950000E-01 -1.950000E-01 -1.950000E-01 -1.950000E-01 -1.920000E-01 -1.920000E-01 -1.920000E-01 -1.920000E-01 -1.890000E-01 -1.890000E-01 
-1.890000E-01 -1.890000E-01 -1.860000E-01 -1.860000E-01 -1.860000E-01 -1.860000E-01 -1.830000E-01 -1.830000E-01 -1.830000E-01 -1.830000E-01 
-1.800000E-01 -1.800000E-01 -1.800000E-01 -1.800000E-01 -1.770000E-01 -1.770000E-01 -1.770000E-01 -1.770000E-01 -1.740000E-01 -1.740000E-01 
-1.740000E-01 -1.740000E-01 -1.710000E-01 -1.710000E-01 -1.710000E-01 -1.710000E-01 -1.680000E-01 -1.680000E-01 -1.680000E-01 -1.680000E-01 
-1.650000E-01 -1.650000E-01 -1.650000E-01 -1.650000E-01 -1.620000E-01 -1.620000E-01 -1.620000E-01 -1.620000E-01 -1.590000E-01 -1.590000E-01 
-1.590000E-01 -1.590000E-01 -1.560000E-01 -1.560000E-01 -1.560000E-01 -1.560000E-01 -1.530000E-01 -1.530000E-01 -1.530000E-01 -1.530000E-01 
-1.500000E-01 -1.500000E-01 -1.500000E-01 -1.500000E-01 -1.470000E-01 -1.470000E-01 -1.470000E-01 -1.470000E-01 -1.440000E-01 -1.440000E-01 
-1.440000E-01 -1.440000E-01 -1.410000E-01 -1.410000E-01 -1.410000E-01 -1.410000E-01 -1.380000E-01 -1.380000E-01 -1.380000E-01 -1.380000E-01 
-1.350000E-01 -1.350000E-01 -1.350000E-01 -1.350000E-01 -1.320000E-01 -1.320000E-01 -1.320000E-01 -1.320000E-01 -1.290000E-01 -1.290000E-01 
-1.290000E-01 -1.290000E-01 -1.260000E-01 -1.260000E-01 -1.260000E-01 -1.260000E-01 -1.230000E-01 -1.230000E-01 -1.230000E-01 -1.230000E-01 
-1.200000E-01 -1.200000E-01 -1.200000E-01 -1.200000E-01 -1.170000E-01 -1.170000E-01 -1.170000E-01 -1.170000E-01 -1.140000E-01 -1.140000E-01 
-1.140000E-01 -1.140000E-01 -1.110000E-01 -1.110000E-01 -1.110000E-01 -1.110000E-01 -1.080000E-01 -1.080000E-01 -1.080000E-01 -1.080000E-01 
-1.050000E-01 -1.050000E-01 -1.050000E-01 -1.050000E-01 -1.020000E-01 -1.020000E-01 -1.020000E-01 -1.020000E-01 -9.900000E-02 -9.900000E-02 
-9.900000E-02 -9.900000E-02 -9.600000E-02 -9.600000E-02 -9.600000E-02 -9.600000E-02 -9.300000E-02 -9.300000E-02 -9.300000E-02 -9.300000E-02 
-9.000000E-02 -9.000000E-02 -9.000000E-02 -9.000000E-02 -8.700000E-02 -8.700000E-02 -8.700000E-02 -8.700000E-02 -8.400000E-02 -8.400000E-02 
-8.400000E-02 -8.400000E-02 -8.100000E-02 -8.100000E-02 -8.100000E-02 -8.100000E-02 -7.800000E-02 -7.800000E-02 -7.800000E-02 -7.800000E-02 
-7.500000E-02 -7.500000E-02 -7.500000E-02 -7.500000E-02 -7.200000E-02 -7.200000E-02 -7.200000E-02 -7.200000E-02 -6.900000E-02 -6.900000E-02 
-6.900000E-02 -6.900000E-02 -6.600000E-02 -6.600000E-02 -6.600000E-02 -6.600000E-02 -6.300000E-02 -6.300000E-02 -6.300000E-02 -6.300000E-02 
-6.000000E-02 -6.000000E-02 -6.000000E-02 -6.000000E-02 -5.700000E-02 -5.700000E-02 -5.700000E-02 -5.700000E-02 -5.400000E-02 -5.400000E-02 
-5.400000E-02 -5.400000E-02 -5.100000E-02 -5.100000E-02 -5.100000E-02 -5.100000E-02 -4.800000E-02 -4.800000E-02 -4.800000E-02 -4.800000E-02 
-4.500000E-02 -4.500000E-02 -4.500000E-02 -4.500000E-02 -4.200000E-02 -4.200000E-02 -4.200000E-02 -4.200000E-02 -3.900000E-02 -3.900000E-02 
-3.900000E-02 -3.900000E-02 -3.600000E-02 -3.600000E-02 -3.600000E-02 -3.600000E-02 -3.300000E-02 -3.300000E-02 -3.300000E-02 -3.300000E-02 
-3.000000E-02 -3.000000E-02 -3.000000E-02 -3.000000E-02 -2.700000E-02 -2.700000E-02 -2.700000E-02 -2.700000E-02 -2.400000E-02 -2.400000E-02 
-2.400000E-02 -2.400000E-02 -2.100000E-02 -2.100000E-02 -2.100000E-02 -2.100000E-02 -1.800000E-02 -1.800000E-02 -1.800000E-02 -1.800000E-02 
-1.500000E-02 -1.500000E-02 -1.500000E-02 -1.500000E-02 -1.200000E-02 -1.200000E-02 -1.200000E-02 -1.200000E-02 -9.000000E-03 -9.000000E-03 
-9.000000E-03 -9.000000E-03 -6.000000E-03 -6.000000E-03 -6.000000E-03 -6.000000E-03 -3.000000E-03 -3.000000E-03 -3.000000E-03 -3.000000E-03 
 2.419939E-16  2.419939E-16  2.419939E-16  2.419939E-16 
 0.000000E+00  0.000000E+00  0.000000E+00  0.000000E+00  0.000000E+00  0.000000E+00  0.000000E+00  0.000000E+00  0.000000E+00  0.000000E+00
 0.000000E+00  0.000000E+00  0.000000E+00  0.000000E+00  0.000000E+00  0.000000E+00  0.000000E+00  0.000000E+00  0.000000E+00  0.000000E+00
 0.000000E+00  0.000000E+00  0.000000E+00  0.000000E+00  0.000000E+00  0.000000E+00  0.000000E+00  0.000000E+00  0.000000E+00  0.000000E+00
 0.000000E+00  0.000000E+00  0.000000E+00  0.000000E+00  0.000000E+00  0.000000E+00  0.000000E+00  0.000000E+00  0.000000E+00  0.000000E+00
 0.000000E+00  0.000000E+00  0.000000E+00  0.000000E+00  0.000000E+00  0.000000E+00  0.000000E+00  0.000000E+00  0.000000E+00  0.000000E+00
 0.000000E+00  0.000000E+00  0.000000E+00  0.000000E+00  0.000000E+00  0.000000E+00  0.000000E+00  0.000000E+00  0.000000E+00  0.000000E+00
 0.000000E+00  0.000000E+00  0.000000E+00  0.000000E+00  0.000000E+00  0.000000E+00  0.000000E+00  0.000000E+00  0.000000E+00  0.000000E+00
 0.000000E+00  0.000000E+00  0.000000E+00  0.000000E+00  0.000000E+00  0.000000E+00  0.000000E+00  0.000000E+00  0.000000E+00  0.000000E+00
 0.000000E+00  0.000000E+00  0.000000E+00  0.000000E+00  0.000000E+00  0.000000E+00  0.000000E+00  0.000000E+00  0.000000E+00  0.000000E+00
 0.000000E+00  0.000000E+00  0.000000E+00  0.000000E+00  0.000000E+00  0.000000E+00  0.000000E+00  0.000000E+00  0.000000E+00  0.000000E+00
 0.000000E+00  0.000000E+00  0.000000E+00  0.000000E+00  0.000000E+00  0.000000E+00  0.000000E+00  0.000000E+00  0.000000E+00  0.000000E+00
 0.000000E+00  0.000000E+00  0.000000E+00  0.000000E+00  0.000000E+00  0.000000E+00  0.000000E+00  0.000000E+00  0.000000E+00  0.000000E+00
 0.000000E+00  0.000000E+00  0.000000E+00  0.000000E+00  0.000000E+00  0.000000E+00  0.000000E+00  0.000000E+00  0.000000E+00  0.000000E+00
 0.000000E+00  0.000000E+00  0.000000E+00  0.000000E+00  0.000000E+00  0.000000E+00  0.000000E+00  0.000000E+00  0.000000E+00  0.000000E+00
 0.000000E+00  0.000000E+00  0.000000E+00  0.000000E+00  0.000000E+00  0.000000E+00  0.000000E+00  0.000000E+00  0.000000E+00  0.000000E+00
 0.000000E+00  0.000000E+00  0.000000E+00  0.000000E+00  0.000000E+00  0.000000E+00  0.000000E+00  0.000000E+00  0.000000E+00  0.000000E+00
 0.000000E+00  0.000000E+00  0.000000E+00  0.000000E+00  0.000000E+00  0.000000E+00  0.000000E+00  0.000000E+00  0.000000E+00  0.000000E+00
 0.000000E+00  0.000000E+00  0.000000E+00  0.000000E+00  0.000000E+00  0.000000E+00  0.000000E+00  0.000000E+00  0.000000E+00  0.000000E+00
 0.000000E+00  0.000000E+00  0.000000E+00  0.000000E+00  0.000000E+00  0.000000E+00  0.000000E+00  0.000000E+00  0.000000E+00  0.000000E+00
 0.000000E+00  0.000000E+00  0.000000E+00  0.000000E+00  0.000000E+00  0.000000E+00  0.000000E+00  0.000000E+00  0.000000E+00  0.000000E+00
-9.999938E-03 -9.999921E-03 -9.999925E-03 -9.999927E-03 -9.999928E-03 -9.999929E-03 -9.999930E-03 -9.999931E-03 -9.999932E-03 -9.999933E-03
-9.999935E-03 -9.999936E-03 -9.999937E-03 -9.999938E-03 -9.999940E-03 -9.999941E-03 -9.999942E-03 -9.999943E-03 -9.999945E-03 -9.999947E-03
-9.999948E-03 -9.999949E-03 -9.999951E-03 -9.999952E-03 -9.999954E-03 -9.999955E-03 -9.999956E-03 -9.999957E-03 -9.999959E-03 -9.999960E-03
-9.999961E-03 -9.999962E-03 -9.999963E-03 -9.999964E-03 -9.999965E-03 -9.999965E-03 -9.999966E-03 -9.999967E-03 -9.999968E-03 -9.999969E-03
-9.999969E-03 -9.999970E-03 -9.999971E-03 -9.999971E-03 -9.999972E-03 -9.999973E-03 -9.999973E-03 -9.999974E-03 -9.999975E-03 -9.999975E-03
-9.999976E-03 -9.999976E-03 -9.999977E-03 -9.999978E-03 -9.999978E-03 -9.999979E-03 -9.999979E-03 -9.999980E-03 -9.999980E-03 -9.999981E-03
-9.999981E-03 -9.999982E-03 -9.999983E-03 -9.999983E-03 -9.999984E-03 -9.999984E-03 -9.999985E-03 -9.999985E-03 -9.999986E-03 -9.999986E-03
-9.999987E-03 -9.999987E-03 -9.999988E-03 -9.999988E-03 -9.999989E-03 -9.999989E-03 -9.999990E-03 -9.999990E-03 -9.999990E-03 -9.999991E-03
-9.999991E-03 -9.999992E-03 -9.999992E-03 -9.999993E-03 -9.999993E-03 -9.999994E-03 -9.999994E-03 -9.999995E-03 -9.999995E-03 -9.999995E-03
-9.999996E-03 -9.999996E-03 -9.999997E-03 -9.999997E-03 -9.999998E-03 -9.999998E-03 -9.999999E-03 -9.999999E-03 -9.999999E-03 -6.666667E-03
 0.000000E+00  0.000000E+00  0.000000E+00  0.000000E+00  0.000000E+00  0.000000E+00  0.000000E+00  0.000000E+00  0.000000E+00  0.000000E+00
 0.000000E+00  0.000000E+00  0.000000E+00  0.000000E+00  0.000000E+00  0.000000E+00  0.000000E+00  0.000000E+00  0.000000E+00  0.000000E+00
 0.000000E+00  0.000000E+00  0.000000E+00  0.000000E+00  0.000000E+00  0.000000E+00  0.000000E+00  0.000000E+00  0.000000E+00  0.000000E+00
 0.000000E+00  0.000000E+00  0.000000E+00  0.000000E+00  0.000000E+00  0.000000E+00  0.000000E+00  0.000000E+00  0.000000E+00  0.000000E+00
 0.000000E+00  0.000000E+00  0.000000E+00  0.000000E+00  0.000000E+00  0.000000E+00  0.000000E+00  0.000000E+00  0.000000E+00  0.000000E+00
 0.000000E+00  0.000000E+00  0.000000E+00  0.000000E+00  0.000000E+00  0.000000E+00  0.000000E+00  0.000000E+00  0.000000E+00  0.000000E+00
 0.000000E+00  0.000000E+00  0.000000E+00  0.000000E+00  0.000000E+00  0.000000E+00  0.000000E+00  0.000000E+00  0.000000E+00  0.000000E+00
 0.000000E+00  0.000000E+00  0.000000E+00  0.000000E+00  0.000000E+00  0.000000E+00  0.000000E+00  0.000000E+00  0.000000E+00  0.000000E+00
 0.000000E+00  0.000000E+00  0.000000E+00  0.000000E+00  0.000000E+00  0.000000E+00  0.000000E+00  0.000000E+00  0.000000E+00  0.000000E+00
 0.000000E+00  0.000000E+00  0.000000E+00  0.000000E+00  0.000000E+00  0.000000E+00  0.000000E+00  0.000000E+00  0.000000E+00  0.000000E+00
 0.000000E+00  0.000000E+00  0.000000E+00  0.000000E+00  0.000000E+00  0.000000E+00  0.000000E+00  0.000000E+00  0.000000E+00  0.000000E+00
 0.000000E+00  0.000000E+00  0.000000E+00  0.000000E+00  0.000000E+00  0.000000E+00  0.000000E+00  0.000000E+00  0.000000E+00  0.000000E+00
 0.000000E+00  0.000000E+00  0.000000E+00  0.000000E+00  0.000000E+00  0.000000E+00  0.000000E+00  0.000000E+00  0.000000E+00  0.000000E+00
 0.000000E+00  0.000000E+00  0.000000E+00  0.000000E+00  0.000000E+00  0.000000E+00  0.000000E+00  0.000000E+00  0.000000E+00  0.000000E+00
 0.000000E+00  0.000000E+00  0.000000E+00  0.000000E+00  0.000000E+00  0.000000E+00  0.000000E+00  0.000000E+00  0.000000E+00  0.000000E+00
 0.000000E+00  0.000000E+00  0.000000E+00  0.000000E+00  0.000000E+00  0.000000E+00  0.000000E+00  0.000000E+00  0.000000E+00  0.000000E+00
 0.000000E+00  0.000000E+00  0.000000E+00  0.000000E+00  0.000000E+00  0.000000E+00  0.000000E+00  0.000000E+00  0.000000E+00  0.000000E+00
 0.000000E+00  0.000000E+00  0.000000E+00  0.000000E+00  0.000000E+00  0.000000E+00  0.000000E+00  0.000000E+00  0.000000E+00  0.000000E+00
 0.000000E+00  0.000000E+00  0.000000E+00  0.000000E+00  0.000000E+00  0.000000E+00  0.000000E+00  0.000000E+00  0.000000E+00  0.000000E+00
 0.000000E+00  0.000000E+00  0.000000E+00  0.000000E+00  0.000000E+00  0.000000E+00  0.000000E+00  0.000000E+00  0.000000E+00  0.000000E+00
-3.241712E-06 -3.241606E-06 -3.241461E-06 -3.241261E-06 -3.241009E-06 -3.240705E-06 -3.240352E-06 -3.239952E-06 -3.239507E-06 -3.239017E-06
-3.238484E-06 -3.237910E-06 -3.237295E-06 -3.236641E-06 -3.235949E-06 -3.235219E-06 -3.234453E-06 -3.464730E-06 -3.943511E-06 -4.435004E-06
-4.912259E-06 -5.358567E-06 -5.752926E-06 -6.078605E-06 -6.323075E-06 -6.480370E-06 -6.552209E-06 -6.547415E-06 -6.479797E-06 -6.365314E-06
-6.219479E-06 -6.055616E-06 -5.884114E-06 -5.712429E-06 -5.545516E-06 -5.386395E-06 -5.236697E-06 -5.097108E-06 -4.967706E-06 -4.848199E-06
-4.738082E-06 -4.636746E-06 -4.543538E-06 -4.457809E-06 -4.378933E-06 -4.306320E-06 -4.239422E-06 -4.177735E-06 -4.120802E-06 -4.068202E-06
-4.019558E-06 -3.974524E-06 -3.932790E-06 -3.894074E-06 -3.858121E-06 -3.824700E-06 -3.793601E-06 -3.764634E-06 -3.737628E-06 -3.712425E-06
-3.688883E-06 -3.666872E-06 -3.646275E-06 -3.626983E-06 -3.608899E-06 -3.591932E-06 -3.576000E-06 -3.561027E-06 -3.546946E-06 -3.533692E-06
-3.521207E-06 -3.509439E-06 -3.498338E-06 -3.487858E-06 -3.477958E-06 -3.468600E-06 -3.459747E-06 -3.451368E-06 -3.443432E-06 -3.435910E-06
-3.428777E-06 -3.422009E-06 -3.415582E-06 -3.409478E-06 -3.403676E-06 -3.398157E-06 -3.392907E-06 -3.387909E-06 -3.383147E-06 -3.378611E-06
-3.374285E-06 -3.370159E-06 -3.366223E-06 -3.362464E-06 -3.358873E-06 -3.355443E-06 -3.352165E-06 -3.349030E-06 -3.346031E-06 -7.526240E-06
 1  1  1  1  1  1  1  1  1  1
 1  1  1  1  1  1  1  1  1  1
 1  1  1  1  1  1  1  1  1  1
 1  1  1  1  1  1  1  1  1  1
 1  1  1  1  1  1  1  1  1  1
 1  1  1  1  1  1  1  1  1  1
 1  1  1  1  1  1  1  1  1  1
 1  1  1  1  1  1  1  1  1  1
 1  1  1  1  1  1  1  1  1  1
 1  1  1  1  1  1  1  1  1  1
