TITLE = "  8.05000E+02 [h]"
VARIABLES="X [m]","Y [m]","Z [m]","qlx [m/h]","qly [m/h]","qlz [m/h]","qgx [m/h]","qgy [m/h]","qgz [m/h]","Material_ID"
ZONE T="8.05000E+02", STRANDID=1, SOLUTIONTIME=8.05000E+02, I=2, J=2, K=101, VARLOCATION=([4-10]=CELLCENTERED), DATAPACKING=BLOCK
 0.000000E+00  1.350000E-01  0.000000E+00  1.350000E-01  0.000000E+00  1.350000E-01  0.000000E+00  1.350000E-01  0.000000E+00  1.350000E-01 
 0.000000E+00  1.350000E-01  0.000000E+00  1.350000E-01  0.000000E+00  1.350000E-01  0.000000E+00  1.350000E-01  0.000000E+00  1.350000E-01 
 0.000000E+00  1.350000E-01  0.000000E+00  1.350000E-01  0.000000E+00  1.350000E-01  0.000000E+00  1.350000E-01  0.000000E+00  1.350000E-01 
 0.000000E+00  1.350000E-01  0.000000E+00  1.350000E-01  0.000000E+00  1.350000E-01  0.000000E+00  1.350000E-01  0.000000E+00  1.350000E-01 
 0.000000E+00  1.350000E-01  0.000000E+00  1.350000E-01  0.000000E+00  1.350000E-01  0.000000E+00  1.350000E-01  0.000000E+00  1.350000E-01 
 0.000000E+00  1.350000E-01  0.000000E+00  1.350000E-01  0.000000E+00  1.350000E-01  0.000000E+00  1.350000E-01  0.000000E+00  1.350000E-01 
 0.000000E+00  1.350000E-01  0.000000E+00  1.350000E-01  0.000000E+00  1.350000E-01  0.000000E+00  1.350000E-01  0.000000E+00  1.350000E-01 
 0.000000E+00  1.350000E-01  0.000000E+00  1.350000E-01  0.000000E+00  1.350000E-01  0.000000E+00  1.350000E-01  0.000000E+00  1.350000E-01 
 0.000000E+00  1.350000E-01  0.000000E+00  1.350000E-01  0.000000E+00  1.350000E-01  0.000000E+00  1.350000E-01  0.000000E+00  1.350000E-01 
 0.000000E+00  1.350000E-01  0.000000E+00  1.350000E-01  0.000000E+00  1.350000E-01  0.000000E+00  1.350000E-01  0.000000E+00  1.350000E-01 
 0.000000E+00  1.350000E-01  0.000000E+00  1.350000E-01  0.000000E+00  1.350000E-01  0.000000E+00  1.350000E-01  0.000000E+00  1.350000E-01 
 0.000000E+00  1.350000E-01  0.000000E+00  1.350000E-01  0.000000E+00  1.350000E-01  0.000000E+00  1.350000E-01  0.000000E+00  1.350000E-01 
 0.000000E+00  1.350000E-01  0.000000E+00  1.350000E-01  0.000000E+00  1.350000E-01  0.000000E+00  1.350000E-01  0.000000E+00  1.350000E-01 
 0.000000E+00  1.350000E-01  0.000000E+00  1.350000E-01  0.000000E+00  1.350000E-01  0.000000E+00  1.350000E-01  0.000000E+00  1.350000E-01 
 0.000000E+00  1.350000E-01  0.000000E+00  1.350000E-01  0.000000E+00  1.350000E-01  0.000000E+00  1.350000E-01  0.000000E+00  1.350000E-01 
 0.000000E+00  1.350000E-01  0.000000E+00  1.350000E-01  0.000000E+00  1.350000E-01  0.000000E+00  1.350000E-01  0.000000E+00  1.350000E-01 
 0.000000E+00  1.350000E-01  0.000000E+00  1.350000E-01  0.000000E+00  1.350000E-01  0.000000E+00  1.350000E-01  0.000000E+00  1.350000E-01 
 0.000000E+00  1.350000E-01  0.000000E+00  1.350000E-01  0.000000E+00  1.350000E-01  0.000000E+00  1.350000E-01  0.000000E+00  1.350000E-01 
 0.000000E+00  1.350000E-01  0.000000E+00  1.350000E-01  0.000000E+00  1.350000E-01  0.000000E+00  1.350000E-01  0.000000E+00  1.350000E-01 
 0.000000E+00  1.350000E-01  0.000000E+00  1.350000E-01  0.000000E+00  1.350000E-01  0.000000E+00  1.350000E-01  0.000000E+00  1.350000E-01 
 0.000000E+00  1.350000E-01  0.000000E+00  1.350000E-01  0.000000E+00  1.350000E-01  0.000000E+00  1.350000E-01  0.000000E+00  1.350000E-01 
 0.000000E+00  1.350000E-01  0.000000E+00  1.350000E-01  0.000000E+00  1.350000E-01  0.000000E+00  1.350000E-01  0.000000E+00  1.350000E-01 
 0.000000E+00  1.350000E-01  0.000000E+00  1.350000E-01  0.000000E+00  1.350000E-01  0.000000E+00  1.350000E-01  0.000000E+00  1.350000E-01 
 0.000000E+00  1.350000E-01  0.000000E+00  1.350000E-01  0.000000E+00  1.350000E-01  0.000000E+00  1.350000E-01  0.000000E+00  1.350000E-01 
 0.000000E+00  1.350000E-01  0.000000E+00  1.350000E-01  0.000000E+00  1.350000E-01  0.000000E+00  1.350000E-01  0.000000E+00  1.350000E-01 
 0.000000E+00  1.350000E-01  0.000000E+00  1.350000E-01  0.000000E+00  1.350000E-01  0.000000E+00  1.350000E-01  0.000000E+00  1.350000E-01 
 0.000000E+00  1.350000E-01  0.000000E+00  1.350000E-01  0.000000E+00  1.350000E-01  0.000000E+00  1.350000E-01  0.000000E+00  1.350000E-01 
 0.000000E+00  1.350000E-01  0.000000E+00  1.350000E-01  0.000000E+00  1.350000E-01  0.000000E+00  1.350000E-01  0.000000E+00  1.350000E-01 
 0.000000E+00  1.350000E-01  0.000000E+00  1.350000E-01  0.000000E+00  1.350000E-01  0.000000E+00  1.350000E-01  0.000000E+00  1.350000E-01 
 0.000000E+00  1.350000E-01  0.000000E+00  1.350000E-01  0.000000E+00  1.350000E-01  0.000000E+00  1.350000E-01  0.000000E+00  1.350000E-01 
 0.000000E+00  1.350000E-01  0.000000E+00  1.350000E-01  0.000000E+00  1.350000E-01  0.000000E+00  1.350000E-01  0.000000E+00  1.350000E-01 
 0.000000E+00  1.350000E-01  0.000000E+00  1.350000E-01  0.000000E+00  1.350000E-01  0.000000E+00  1.350000E-01  0.000000E+00  1.350000E-01 
 0.000000E+00  1.350000E-01  0.000000E+00  1.350000E-01  0.000000E+00  1.350000E-01  0.000000E+00  1.350000E-01  0.000000E+00  1.350000E-01 
 0.000000E+00  1.350000E-01  0.000000E+00  1.350000E-01  0.000000E+00  1.350000E-01  0.000000E+00  1.350000E-01  0.000000E+00  1.350000E-01 
 0.000000E+00  1.350000E-01  0.000000E+00  1.350000E-01  0.000000E+00  1.350000E-01  0.000000E+00  1.350000E-01  0.000000E+00  1.350000E-01 
 0.000000E+00  1.350000E-01  0.000000E+00  1.350000E-01  0.000000E+00  1.350000E-01  0.000000E+00  1.350000E-01  0.000000E+00  1.350000E-01 
 0.000000E+00  1.350000E-01  0.000000E+00  1.350000E-01  0.000000E+00  1.350000E-01  0.000000E+00  1.350000E-01  0.000000E+00  1.350000E-01 
 0.000000E+00  1.350000E-01  0.000000E+00  1.350000E-01  0.000000E+00  1.350000E-01  0.000000E+00  1.350000E-01  0.000000E+00  1.350000E-01 
 0.000000E+00  1.350000E-01  0.000000E+00  1.350000E-01  0.000000E+00  1.350000E-01  0.000000E+00  1.350000E-01  0.000000E+00  1.350000E-01 
 0.000000E+00  1.350000E-01  0.000000E+00  1.350000E-01  0.000000E+00  1.350000E-01  0.000000E+00  1.350000E-01  0.000000E+00  1.350000E-01 
 0.000000E+00  1.350000E-01  0.000000E+00  1.350000E-01 
 0.000000E+00  0.000000E+00  1.350000E-01  1.350000E-01  0.000000E+00  0.000000E+00  1.350000E-01  1.350000E-01  0.000000E+00  0.000000E+00 
 1.350000E-01  1.350000E-01  0.000000E+00  0.000000E+00  1.350000E-01  1.350000E-01  0.000000E+00  0.000000E+00  1.350000E-01  1.350000E-01 
 0.000000E+00  0.000000E+00  1.350000E-01  1.350000E-01  0.000000E+00  0.000000E+00  1.350000E-01  1.350000E-01  0.000000E+00  0.000000E+00 
 1.350000E-01  1.350000E-01  0.000000E+00  0.000000E+00  1.350000E-01  1.350000E-01  0.000000E+00  0.000000E+00  1.350000E-01  1.350000E-01 
 0.000000E+00  0.000000E+00  1.350000E-01  1.350000E-01  0.000000E+00  0.000000E+00  1.350000E-01  1.350000E-01  0.000000E+00  0.000000E+00 
 1.350000E-01  1.350000E-01  0.000000E+00  0.000000E+00  1.350000E-01  1.350000E-01  0.000000E+00  0.000000E+00  1.350000E-01  1.350000E-01 
 0.000000E+00  0.000000E+00  1.350000E-01  1.350000E-01  0.000000E+00  0.000000E+00  1.350000E-01  1.350000E-01  0.000000E+00  0.000000E+00 
 1.350000E-01  1.350000E-01  0.000000E+00  0.000000E+00  1.350000E-01  1.350000E-01  0.000000E+00  0.000000E+00  1.350000E-01  1.350000E-01 
 0.000000E+00  0.000000E+00  1.350000E-01  1.350000E-01  0.000000E+00  0.000000E+00  1.350000E-01  1.350000E-01  0.000000E+00  0.000000E+00 
 1.350000E-01  1.350000E-01  0.000000E+00  0.000000E+00  1.350000E-01  1.350000E-01  0.000000E+00  0.000000E+00  1.350000E-01  1.350000E-01 
 0.000000E+00  0.000000E+00  1.350000E-01  1.350000E-01  0.000000E+00  0.000000E+00  1.350000E-01  1.350000E-01  0.000000E+00  0.000000E+00 
 1.350000E-01  1.350000E-01  0.000000E+00  0.000000E+00  1.350000E-01  1.350000E-01  0.000000E+00  0.000000E+00  1.350000E-01  1.350000E-01 
 0.000000E+00  0.000000E+00  1.350000E-01  1.350000E-01  0.000000E+00  0.000000E+00  1.350000E-01  1.350000E-01  0.000000E+00  0.000000E+00 
 1.350000E-01  1.350000E-01  0.000000E+00  0.000000E+00  1.350000E-01  1.350000E-01  0.000000E+00  0.000000E+00  1.350000E-01  1.350000E-01 
 0.000000E+00  0.000000E+00  1.350000E-01  1.350000E-01  0.000000E+00  0.000000E+00  1.350000E-01  1.350000E-01  0.000000E+00  0.000000E+00 
 1.350000E-01  1.350000E-01  0.000000E+00  0.000000E+00  1.350000E-01  1.350000E-01  0.000000E+00  0.000000E+00  1.350000E-01  1.350000E-01 
 0.000000E+00  0.000000E+00  1.350000E-01  1.350000E-01  0.000000E+00  0.000000E+00  1.350000E-01  1.350000E-01  0.000000E+00  0.000000E+00 
 1.350000E-01  1.350000E-01  0.000000E+00  0.000000E+00  1.350000E-01  1.350000E-01  0.000000E+00  0.000000E+00  1.350000E-01  1.350000E-01 
 0.000000E+00  0.000000E+00  1.350000E-01  1.350000E-01  0.000000E+00  0.000000E+00  1.350000E-01  1.350000E-01  0.000000E+00  0.000000E+00 
 1.350000E-01  1.350000E-01  0.000000E+00  0.000000E+00  1.350000E-01  1.350000E-01  0.000000E+00  0.000000E+00  1.350000E-01  1.350000E-01 
 0.000000E+00  0.000000E+00  1.350000E-01  1.350000E-01  0.000000E+00  0.000000E+00  1.350000E-01  1.350000E-01  0.000000E+00  0.000000E+00 
 1.350000E-01  1.350000E-01  0.000000E+00  0.000000E+00  1.350000E-01  1.350000E-01  0.000000E+00  0.000000E+00  1.350000E-01  1.350000E-01 
 0.000000E+00  0.000000E+00  1.350000E-01  1.350000E-01  0.000000E+00  0.000000E+00  1.350000E-01  1.350000E-01  0.000000E+00  0.000000E+00 
 1.350000E-01  1.350000E-01  0.000000E+00  0.000000E+00  1.350000E-01  1.350000E-01  0.000000E+00  0.000000E+00  1.350000E-01  1.350000E-01 
 0.000000E+00  0.000000E+00  1.350000E-01  1.350000E-01  0.000000E+00  0.000000E+00  1.350000E-01  1.350000E-01  0.000000E+00  0.000000E+00 
 1.350000E-01  1.350000E-01  0.000000E+00  0.000000E+00  1.350000E-01  1.350000E-01  0.000000E+00  0.000000E+00  1.350000E-01  1.350000E-01 
 0.000000E+00  0.000000E+00  1.350000E-01  1.350000E-01  0.000000E+00  0.000000E+00  1.350000E-01  1.350000E-01  0.000000E+00  0.000000E+00 
 1.350000E-01  1.350000E-01  0.000000E+00  0.000000E+00  1.350000E-01  1.350000E-01  0.000000E+00  0.000000E+00  1.350000E-01  1.350000E-01 
 0.000000E+00  0.000000E+00  1.350000E-01  1.350000E-01  0.000000E+00  0.000000E+00  1.350000E-01  1.350000E-01  0.000000E+00  0.000000E+00 
 1.350000E-01  1.350000E-01  0.000000E+00  0.000000E+00  1.350000E-01  1.350000E-01  0.000000E+00  0.000000E+00  1.350000E-01  1.350000E-01 
 0.000000E+00  0.000000E+00  1.350000E-01  1.350000E-01  0.000000E+00  0.000000E+00  1.350000E-01  1.350000E-01  0.000000E+00  0.000000E+00 
 1.350000E-01  1.350000E-01  0.000000E+00  0.000000E+00  1.350000E-01  1.350000E-01  0.000000E+00  0.000000E+00  1.350000E-01  1.350000E-01 
 0.000000E+00  0.000000E+00  1.350000E-01  1.350000E-01  0.000000E+00  0.000000E+00  1.350000E-01  1.350000E-01  0.000000E+00  0.000000E+00 
 1.350000E-01  1.350000E-01  0.000000E+00  0.000000E+00  1.350000E-01  1.350000E-01  0.000000E+00  0.000000E+00  1.350000E-01  1.350000E-01 
 0.000000E+00  0.000000E+00  1.350000E-01  1.350000E-01  0.000000E+00  0.000000E+00  1.350000E-01  1.350000E-01  0.000000E+00  0.000000E+00 
 1.350000E-01  1.350000E-01  0.000000E+00  0.000000E+00  1.350000E-01  1.350000E-01  0.000000E+00  0.000000E+00  1.350000E-01  1.350000E-01 
 0.000000E+00  0.000000E+00  1.350000E-01  1.350000E-01  0.000000E+00  0.000000E+00  1.350000E-01  1.350000E-01  0.000000E+00  0.000000E+00 
 1.350000E-01  1.350000E-01  0.000000E+00  0.000000E+00  1.350000E-01  1.350000E-01  0.000000E+00  0.000000E+00  1.350000E-01  1.350000E-01 
 0.000000E+00  0.000000E+00  1.350000E-01  1.350000E-01  0.000000E+00  0.000000E+00  1.350000E-01  1.350000E-01  0.000000E+00  0.000000E+00 
 1.350000E-01  1.350000E-01  0.000000E+00  0.000000E+00  1.350000E-01  1.350000E-01  0.000000E+00  0.000000E+00  1.350000E-01  1.350000E-01 
 0.000000E+00  0.000000E+00  1.350000E-01  1.350000E-01 
-3.000000E-01 -3.000000E-01 -3.000000E-01 -3.000000E-01 -2.970000E-01 -2.970000E-01 -2.970000E-01 -2.970000E-01 -2.940000E-01 -2.940000E-01 
-2.940000E-01 -2.940000E-01 -2.910000E-01 -2.910000E-01 -2.910000E-01 -2.910000E-01 -2.880000E-01 -2.880000E-01 -2.880000E-01 -2.880000E-01 
-2.850000E-01 -2.850000E-01 -2.850000E-01 -2.850000E-01 -2.820000E-01 -2.820000E-01 -2.820000E-01 -2.820000E-01 -2.790000E-01 -2.790000E-01 
-2.790000E-01 -2.790000E-01 -2.760000E-01 -2.760000E-01 -2.760000E-01 -2.760000E-01 -2.730000E-01 -2.730000E-01 -2.730000E-01 -2.730000E-01 
-2.700000E-01 -2.700000E-01 -2.700000E-01 -2.700000E-01 -2.670000E-01 -2.670000E-01 -2.670000E-01 -2.670000E-01 -2.640000E-01 -2.640000E-01 
-2.640000E-01 -2.640000E-01 -2.610000E-01 -2.610000E-01 -2.610000E-01 -2.610000E-01 -2.580000E-01 -2.580000E-01 -2.580000E-01 -2.580000E-01 
-2.550000E-01 -2.550000E-01 -2.550000E-01 -2.550000E-01 -2.520000E-01 -2.520000E-01 -2.520000E-01 -2.520000E-01 -2.490000E-01 -2.490000E-01 
-2.490000E-01 -2.490000E-01 -2.460000E-01 -2.460000E-01 -2.460000E-01 -2.460000E-01 -2.430000E-01 -2.430000E-01 -2.430000E-01 -2.430000E-01 
-2.400000E-01 -2.400000E-01 -2.400000E-01 -2.400000E-01 -2.370000E-01 -2.370000E-01 -2.370000E-01 -2.370000E-01 -2.340000E-01 -2.340000E-01 
-2.340000E-01 -2.340000E-01 -2.310000E-01 -2.310000E-01 -2.310000E-01 -2.310000E-01 -2.280000E-01 -2.280000E-01 -2.280000E-01 -2.280000E-01 
-2.250000E-01 -2.250000E-01 -2.250000E-01 -2.250000E-01 -2.220000E-01 -2.220000E-01 -2.220000E-01 -2.220000E-01 -2.190000E-01 -2.190000E-01 
-2.190000E-01 -2.190000E-01 -2.160000E-01 -2.160000E-01 -2.160000E-01 -2.160000E-01 -2.130000E-01 -2.130000E-01 -2.130000E-01 -2.130000E-01 
-2.100000E-01 -2.100000E-01 -2.100000E-01 -2.100000E-01 -2.070000E-01 -2.070000E-01 -2.070000E-01 -2.070000E-01 -2.040000E-01 -2.040000E-01 
-2.040000E-01 -2.040000E-01 -2.010000E-01 -2.010000E-01 -2.010000E-01 -2.010000E-01 -1.980000E-01 -1.980000E-01 -1.980000E-01 -1.980000E-01 
-1.950000E-01 -1.950000E-01 -1.950000E-01 -1.950000E-01 -1.920000E-01 -1.920000E-01 -1.920000E-01 -1.920000E-01 -1.890000E-01 -1.890000E-01 
-1.890000E-01 -1.890000E-01 -1.860000E-01 -1.860000E-01 -1.860000E-01 -1.860000E-01 -1.830000E-01 -1.830000E-01 -1.830000E-01 -1.830000E-01 
-1.800000E-01 -1.800000E-01 -1.800000E-01 -1.800000E-01 -1.770000E-01 -1.770000E-01 -1.770000E-01 -1.770000E-01 -1.740000E-01 -1.740000E-01 
-1.740000E-01 -1.740000E-01 -1.710000E-01 -1.710000E-01 -1.710000E-01 -1.710000E-01 -1.680000E-01 -1.680000E-01 -1.680000E-01 -1.680000E-01 
-1.650000E-01 -1.650000E-01 -1.650000E-01 -1.650000E-01 -1.620000E-01 -1.620000E-01 -1.620000E-01 -1.620000E-01 -1.590000E-01 -1.590000E-01 
-1.590000E-01 -1.590000E-01 -1.560000E-01 -1.560000E-01 -1.560000E-01 -1.560000E-01 -1.530000E-01 -1.530000E-01 -1.530000E-01 -1.530000E-01 
-1.500000E-01 -1.500000E-01 -1.500000E-01 -1.500000E-01 -1.470000E-01 -1.470000E-01 -1.470000E-01 -1.470000E-01 -1.440000E-01 -1.440000E-01 
-1.440000E-01 -1.440000E-01 -1.410000E-01 -1.410000E-01 -1.410000E-01 -1.410000E-01 -1.380000E-01 -1.380000E-01 -1.380000E-01 -1.380000E-01 
-1.350000E-01 -1.350000E-01 -1.350000E-01 -1.350000E-01 -1.320000E-01 -1.320000E-01 -1.320000E-01 -1.320000E-01 -1.290000E-01 -1.290000E-01 
-1.290000E-01 -1.290000E-01 -1.260000E-01 -1.260000E-01 -1.260000E-01 -1.260000E-01 -1.230000E-01 -1.230000E-01 -1.230000E-01 -1.230000E-01 
-1.200000E-01 -1.200000E-01 -1.200000E-01 -1.200000E-01 -1.170000E-01 -1.170000E-01 -1.170000E-01 -1.170000E-01 -1.140000E-01 -1.140000E-01 
-1.140000E-01 -1.140000E-01 -1.110000E-01 -1.110000E-01 -1.110000E-01 -1.110000E-01 -1.080000E-01 -1.080000E-01 -1.080000E-01 -1.080000E-01 
-1.050000E-01 -1.050000E-01 -1.050000E-01 -1.050000E-01 -1.020000E-01 -1.020000E-01 -1.020000E-01 -1.020000E-01 -9.900000E-02 -9.900000E-02 
-9.900000E-02 -9.900000E-02 -9.600000E-02 -9.600000E-02 -9.600000E-02 -9.600000E-02 -9.300000E-02 -9.300000E-02 -9.300000E-02 -9.300000E-02 
-9.000000E-02 -9.000000E-02 -9.000000E-02 -9.000000E-02 -8.700000E-02 -8.700000E-02 -8.700000E-02 -8.700000E-02 -8.400000E-02 -8.400000E-02 
-8.400000E-02 -8.400000E-02 -8.100000E-02 -8.100000E-02 -8.100000E-02 -8.100000E-02 -7.800000E-02 -7.800000E-02 -7.800000E-02 -7.800000E-02 
-7.500000E-02 -7.500000E-02 -7.500000E-02 -7.500000E-02 -7.200000E-02 -7.200000E-02 -7.200000E-02 -7.200000E-02 -6.900000E-02 -6.900000E-02 
-6.900000E-02 -6.900000E-02 -6.600000E-02 -6.600000E-02 -6.600000E-02 -6.600000E-02 -6.300000E-02 -6.300000E-02 -6.300000E-02 -6.300000E-02 
-6.000000E-02 -6.000000E-02 -6.000000E-02 -6.000000E-02 -5.700000E-02 -5.700000E-02 -5.700000E-02 -5.700000E-02 -5.400000E-02 -5.400000E-02 
-5.400000E-02 -5.400000E-02 -5.100000E-02 -5.100000E-02 -5.100000E-02 -5.100000E-02 -4.800000E-02 -4.800000E-02 -4.800000E-02 -4.800000E-02 
-4.500000E-02 -4.500000E-02 -4.500000E-02 -4.500000E-02 -4.200000E-02 -4.200000E-02 -4.200000E-02 -4.200000E-02 -3.900000E-02 -3.900000E-02 
-3.900000E-02 -3.900000E-02 -3.600000E-02 -3.600000E-02 -3.600000E-02 -3.600000E-02 -3.300000E-02 -3.300000E-02 -3.300000E-02 -3.300000E-02 
-3.000000E-02 -3.000000E-02 -3.000000E-02 -3.000000E-02 -2.700000E-02 -2.700000E-02 -2.700000E-02 -2.700000E-02 -2.400000E-02 -2.400000E-02 
-2.400000E-02 -2.400000E-02 -2.100000E-02 -2.100000E-02 -2.100000E-02 -2.100000E-02 -1.800000E-02 -1.800000E-02 -1.800000E-02 -1.800000E-02 
-1.500000E-02 -1.500000E-02 -1.500000E-02 -1.500000E-02 -1.200000E-02 -1.200000E-02 -1.200000E-02 -1.200000E-02 -9.000000E-03 -9.000000E-03 
-9.000000E-03 -9.000000E-03 -6.000000E-03 -6.000000E-03 -6.000000E-03 -6.000000E-03 -3.000000E-03 -3.000000E-03 -3.000000E-03 -3.000000E-03 
 2.419939E-16  2.419939E-16  2.419939E-16  2.419939E-16 
 0.000000E+00  0.000000E+00  0.000000E+00  0.000000E+00  0.000000E+00  0.000000E+00  0.000000E+00  0.000000E+00  0.000000E+00  0.000000E+00
 0.000000E+00  0.000000E+00  0.000000E+00  0.000000E+00  0.000000E+00  0.000000E+00  0.000000E+00  0.000000E+00  0.000000E+00  0.000000E+00
 0.000000E+00  0.000000E+00  0.000000E+00  0.000000E+00  0.000000E+00  0.000000E+00  0.000000E+00  0.000000E+00  0.000000E+00  0.000000E+00
 0.000000E+00  0.000000E+00  0.000000E+00  0.000000E+00  0.000000E+00  0.000000E+00  0.000000E+00  0.000000E+00  0.000000E+00  0.000000E+00
 0.000000E+00  0.000000E+00  0.000000E+00  0.000000E+00  0.000000E+00  0.000000E+00  0.000000E+00  0.000000E+00  0.000000E+00  0.000000E+00
 0.000000E+00  0.000000E+00  0.000000E+00  0.000000E+00  0.000000E+00  0.000000E+00  0.000000E+00  0.000000E+00  0.000000E+00  0.000000E+00
 0.000000E+00  0.000000E+00  0.000000E+00  0.000000E+00  0.000000E+00  0.000000E+00  0.000000E+00  0.000000E+00  0.000000E+00  0.000000E+00
 0.000000E+00  0.000000E+00  0.000000E+00  0.000000E+00  0.000000E+00  0.000000E+00  0.000000E+00  0.000000E+00  0.000000E+00  0.000000E+00
 0.000000E+00  0.000000E+00  0.000000E+00  0.000000E+00  0.000000E+00  0.000000E+00  0.000000E+00  0.000000E+00  0.000000E+00  0.000000E+00
 0.000000E+00  0.000000E+00  0.000000E+00  0.000000E+00  0.000000E+00  0.000000E+00  0.000000E+00  0.000000E+00  0.000000E+00  0.000000E+00
 0.000000E+00  0.000000E+00  0.000000E+00  0.000000E+00  0.000000E+00  0.000000E+00  0.000000E+00  0.000000E+00  0.000000E+00  0.000000E+00
 0.000000E+00  0.000000E+00  0.000000E+00  0.000000E+00  0.000000E+00  0.000000E+00  0.000000E+00  0.000000E+00  0.000000E+00  0.000000E+00
 0.000000E+00  0.000000E+00  0.000000E+00  0.000000E+00  0.000000E+00  0.000000E+00  0.000000E+00  0.000000E+00  0.000000E+00  0.000000E+00
 0.000000E+00  0.000000E+00  0.000000E+00  0.000000E+00  0.000000E+00  0.000000E+00  0.000000E+00  0.000000E+00  0.000000E+00  0.000000E+00
 0.000000E+00  0.000000E+00  0.000000E+00  0.000000E+00  0.000000E+00  0.000000E+00  0.000000E+00  0.000000E+00  0.000000E+00  0.000000E+00
 0.000000E+00  0.000000E+00  0.000000E+00  0.000000E+00  0.000000E+00  0.000000E+00  0.000000E+00  0.000000E+00  0.000000E+00  0.000000E+00
 0.000000E+00  0.000000E+00  0.000000E+00  0.000000E+00  0.000000E+00  0.000000E+00  0.000000E+00  0.000000E+00  0.000000E+00  0.000000E+00
 0.000000E+00  0.000000E+00  0.000000E+00  0.000000E+00  0.000000E+00  0.000000E+00  0.000000E+00  0.000000E+00  0.000000E+00  0.000000E+00
 0.000000E+00  0.000000E+00  0.000000E+00  0.000000E+00  0.000000E+00  0.000000E+00  0.000000E+00  0.000000E+00  0.000000E+00  0.000000E+00
 0.000000E+00  0.000000E+00  0.000000E+00  0.000000E+00  0.000000E+00  0.000000E+00  0.000000E+00  0.000000E+00  0.000000E+00  0.000000E+00
-9.999938E-03 -9.999921E-03 -9.999925E-03 -9.999927E-03 -9.999928E-03 -9.999929E-03 -9.999930E-03 -9.999931E-03 -9.999932E-03 -9.999933E-03
-9.999935E-03 -9.999936E-03 -9.999937E-03 -9.999938E-03 -9.999940E-03 -9.999941E-03 -9.999942E-03 -9.999944E-03 -9.999945E-03 -9.999947E-03
-9.999948E-03 -9.999949E-03 -9.999951E-03 -9.999952E-03 -9.999954E-03 -9.999955E-03 -9.999956E-03 -9.999957E-03 -9.999959E-03 -9.999960E-03
-9.999961E-03 -9.999962E-03 -9.999963E-03 -9.999964E-03 -9.999965E-03 -9.999965E-03 -9.999966E-03 -9.999967E-03 -9.999968E-03 -9.999969E-03
-9.999969E-03 -9.999970E-03 -9.999971E-03 -9.999971E-03 -9.999972E-03 -9.999973E-03 -9.999973E-03 -9.999974E-03 -9.999975E-03 -9.999975E-03
-9.999976E-03 -9.999976E-03 -9.999977E-03 -9.999978E-03 -9.999978E-03 -9.999979E-03 -9.999979E-03 -9.999980E-03 -9.999980E-03 -9.999981E-03
-9.999981E-03 -9.999982E-03 -9.999983E-03 -9.999983E-03 -9.999984E-03 -9.999984E-03 -9.999985E-03 -9.999985E-03 -9.999986E-03 -9.999986E-03
-9.999987E-03 -9.999987E-03 -9.999988E-03 -9.999988E-03 -9.999989E-03 -9.999989E-03 -9.999990E-03 -9.999990E-03 -9.999990E-03 -9.999991E-03
-9.999991E-03 -9.999992E-03 -9.999992E-03 -9.999993E-03 -9.999993E-03 -9.999994E-03 -9.999994E-03 -9.999995E-03 -9.999995E-03 -9.999995E-03
-9.999996E-03 -9.999996E-03 -9.999997E-03 -9.999997E-03 -9.999998E-03 -9.999998E-03 -9.999999E-03 -9.999999E-03 -9.999999E-03 -6.666667E-03
 0.000000E+00  0.000000E+00  0.000000E+00  0.000000E+00  0.000000E+00  0.000000E+00  0.000000E+00  0.000000E+00  0.000000E+00  0.000000E+00
 0.000000E+00  0.000000E+00  0.000000E+00  0.000000E+00  0.000000E+00  0.000000E+00  0.000000E+00  0.000000E+00  0.000000E+00  0.000000E+00
 0.000000E+00  0.000000E+00  0.000000E+00  0.000000E+00  0.000000E+00  0.000000E+00  0.000000E+00  0.000000E+00  0.000000E+00  0.000000E+00
 0.000000E+00  0.000000E+00  0.000000E+00  0.000000E+00  0.000000E+00  0.000000E+00  0.000000E+00  0.000000E+00  0.000000E+00  0.000000E+00
 0.000000E+00  0.000000E+00  0.000000E+00  0.000000E+00  0.000000E+00  0.000000E+00  0.000000E+00  0.000000E+00  0.000000E+00  0.000000E+00
 0.000000E+00  0.000000E+00  0.000000E+00  0.000000E+00  0.000000E+00  0.000000E+00  0.000000E+00  0.000000E+00  0.000000E+00  0.000000E+00
 0.000000E+00  0.000000E+00  0.000000E+00  0.000000E+00  0.000000E+00  0.000000E+00  0.000000E+00  0.000000E+00  0.000000E+00  0.000000E+00
 0.000000E+00  0.000000E+00  0.000000E+00  0.000000E+00  0.000000E+00  0.000000E+00  0.000000E+00  0.000000E+00  0.000000E+00  0.000000E+00
 0.000000E+00  0.000000E+00  0.000000E+00  0.000000E+00  0.000000E+00  0.000000E+00  0.000000E+00  0.000000E+00  0.000000E+00  0.000000E+00
 0.000000E+00  0.000000E+00  0.000000E+00  0.000000E+00  0.000000E+00  0.000000E+00  0.000000E+00  0.000000E+00  0.000000E+00  0.000000E+00
 0.000000E+00  0.000000E+00  0.000000E+00  0.000000E+00  0.000000E+00  0.000000E+00  0.000000E+00  0.000000E+00  0.000000E+00  0.000000E+00
 0.000000E+00  0.000000E+00  0.000000E+00  0.000000E+00  0.000000E+00  0.000000E+00  0.000000E+00  0.000000E+00  0.000000E+00  0.000000E+00
 0.000000E+00  0.000000E+00  0.000000E+00  0.000000E+00  0.000000E+00  0.000000E+00  0.000000E+00  0.000000E+00  0.000000E+00  0.000000E+00
 0.000000E+00  0.000000E+00  0.000000E+00  0.000000E+00  0.000000E+00  0.000000E+00  0.000000E+00  0.000000E+00  0.000000E+00  0.000000E+00
 0.000000E+00  0.000000E+00  0.000000E+00  0.000000E+00  0.000000E+00  0.000000E+00  0.000000E+00  0.000000E+00  0.000000E+00  0.000000E+00
 0.000000E+00  0.000000E+00  0.000000E+00  0.000000E+00  0.000000E+00  0.000000E+00  0.000000E+00  0.000000E+00  0.000000E+00  0.000000E+00
 0.000000E+00  0.000000E+00  0.000000E+00  0.000000E+00  0.000000E+00  0.000000E+00  0.000000E+00  0.000000E+00  0.000000E+00  0.000000E+00
 0.000000E+00  0.000000E+00  0.000000E+00  0.000000E+00  0.000000E+00  0.000000E+00  0.000000E+00  0.000000E+00  0.000000E+00  0.000000E+00
 0.000000E+00  0.000000E+00  0.000000E+00  0.000000E+00  0.000000E+00  0.000000E+00  0.000000E+00  0.000000E+00  0.000000E+00  0.000000E+00
 0.000000E+00  0.000000E+00  0.000000E+00  0.000000E+00  0.000000E+00  0.000000E+00  0.000000E+00  0.000000E+00  0.000000E+00  0.000000E+00
-3.237690E-06 -3.237584E-06 -3.237439E-06 -3.237240E-06 -3.236988E-06 -3.236684E-06 -3.236332E-06 -3.235932E-06 -3.235487E-06 -3.234997E-06
-3.234465E-06 -3.233892E-06 -3.233277E-06 -3.232624E-06 -3.231932E-06 -3.231203E-06 -3.230438E-06 -3.460261E-06 -3.933941E-06 -4.425114E-06
-4.906214E-06 -5.351741E-06 -5.745555E-06 -6.070789E-06 -6.314923E-06 -6.471999E-06 -6.543735E-06 -6.538943E-06 -6.471414E-06 -6.357086E-06
-6.211450E-06 -6.047812E-06 -5.876545E-06 -5.705096E-06 -5.538412E-06 -5.379510E-06 -5.230017E-06 -5.090619E-06 -4.961393E-06 -4.842049E-06
-4.732082E-06 -4.630883E-06 -4.537802E-06 -4.452189E-06 -4.373420E-06 -4.300904E-06 -4.234096E-06 -4.172493E-06 -4.115635E-06 -4.063106E-06
-4.014527E-06 -3.969554E-06 -3.927876E-06 -3.889211E-06 -3.853306E-06 -3.819929E-06 -3.788871E-06 -3.759943E-06 -3.732973E-06 -3.707803E-06
-3.684292E-06 -3.662311E-06 -3.641741E-06 -3.622474E-06 -3.604413E-06 -3.587468E-06 -3.571558E-06 -3.556605E-06 -3.542542E-06 -3.529306E-06
-3.516837E-06 -3.505084E-06 -3.493997E-06 -3.483531E-06 -3.473644E-06 -3.464298E-06 -3.455457E-06 -3.447089E-06 -3.439163E-06 -3.431651E-06
-3.424527E-06 -3.417768E-06 -3.411350E-06 -3.405254E-06 -3.399459E-06 -3.393947E-06 -3.388704E-06 -3.383712E-06 -3.378957E-06 -3.374426E-06
-3.370106E-06 -3.365986E-06 -3.362054E-06 -3.358300E-06 -3.354715E-06 -3.351289E-06 -3.348015E-06 -3.344884E-06 -3.341888E-06 -7.517840E-06
 1  1  1  1  1  1  1  1  1  1
 1  1  1  1  1  1  1  1  1  1
 1  1  1  1  1  1  1  1  1  1
 1  1  1  1  1  1  1  1  1  1
 1  1  1  1  1  1  1  1  1  1
 1  1  1  1  1  1  1  1  1  1
 1  1  1  1  1  1  1  1  1  1
 1  1  1  1  1  1  1  1  1  1
 1  1  1  1  1  1  1  1  1  1
 1  1  1  1  1  1  1  1  1  1
